 
             +---------------------------------------------------+
             |                                                   |
             |                   WANNIER90                       |
             |                                                   |
             +---------------------------------------------------+
             |                                                   |
             |        Welcome to the Maximally-Localized         |
             |        Generalized Wannier Functions code         |
             |            http://www.wannier.org                 |
             |                                                   |
             |                                                   |
             |  Wannier90 Developer Group:                       |
             |    Giovanni Pizzi    (EPFL)                       |
             |    Valerio Vitale    (Cambridge)                  |
             |    David Vanderbilt  (Rutgers University)         |
             |    Nicola Marzari    (EPFL)                       |
             |    Ivo Souza         (Universidad del Pais Vasco) |
             |    Arash A. Mostofi  (Imperial College London)    |
             |    Jonathan R. Yates (University of Oxford)       |
             |                                                   |
             |  For the full list of Wannier90 3.x authors,      |
             |  please check the code documentation and the      |
             |  README on the GitHub page of the code            |
             |                                                   |
             |                                                   |
             |  Please cite                                      |
             |                                                   |
             |  [ref] "Wannier90 as a community code:            |
             |        new features and applications",            |
             |        G. Pizzi et al., J. Phys. Cond. Matt. 32,  |
             |        165902 (2020).                             |
             |        http://doi.org/10.1088/1361-648X/ab51ff    |
             |                                                   |
             |  in any publications arising from the use of      |
             |  this code. For the method please cite            |
             |                                                   |
             |  [ref] "Maximally Localized Generalised Wannier   |
             |         Functions for Composite Energy Bands"     |
             |         N. Marzari and D. Vanderbilt              |
             |         Phys. Rev. B 56 12847 (1997)              |
             |                                                   |
             |  [ref] "Maximally Localized Wannier Functions     |
             |         for Entangled Energy Bands"               |
             |         I. Souza, N. Marzari and D. Vanderbilt    |
             |         Phys. Rev. B 65 035109 (2001)             |
             |                                                   |
             |                                                   |
             | Copyright (c) 1996-2020                           |
             |        The Wannier90 Developer Group and          |
             |        individual contributors                    |
             |                                                   |
             |      Release: 3.1.0        5th March    2020      |
             |                                                   |
             | This program is free software; you can            |
             | redistribute it and/or modify it under the terms  |
             | of the GNU General Public License as published by |
             | the Free Software Foundation; either version 2 of |
             | the License, or (at your option) any later version|
             |                                                   |
             | This program is distributed in the hope that it   |
             | will be useful, but WITHOUT ANY WARRANTY; without |
             | even the implied warranty of MERCHANTABILITY or   |
             | FITNESS FOR A PARTICULAR PURPOSE. See the GNU     |
             | General Public License for more details.          |
             |                                                   |
             | You should have received a copy of the GNU General|
             | Public License along with this program; if not,   |
             | write to the Free Software Foundation, Inc.,      |
             | 675 Mass Ave, Cambridge, MA 02139, USA.           |
             |                                                   |
             +---------------------------------------------------+
             |    Execution started on 23Feb2024 at 10:26:23     |
             +---------------------------------------------------+
 
 ******************************************************************************
 * -> Using CODATA 2006 constant values                                       *
 *    (http://physics.nist.gov/cuu/Constants/index.html)                      *
 * -> Using Bohr value from CODATA                                            *
 ******************************************************************************
 

 Running in serial (with serial executable)
 
                                    ------
                                    SYSTEM
                                    ------
 
                              Lattice Vectors (Ang)
                    a_1    -1.954744   1.954746   6.277715
                    a_2     1.954745  -1.954745   6.277715
                    a_3     1.954745   1.954745  -6.277715
 
                   Unit Cell Volume:      95.94932  (Ang^3)
 
                        Reciprocal-Space Vectors (Ang^-1)
                    b_1     0.000000   1.607162   0.500436
                    b_2     1.607162  -0.000000   0.500436
                    b_3     1.607162   1.607162  -0.000000
  
 *----------------------------------------------------------------------------*
 |   Site       Fractional Coordinate          Cartesian Coordinate (Ang)     |
 +----------------------------------------------------------------------------+
 | Sr   1   0.64283   0.64283   0.00000   |    0.00000   0.00000   8.07097    |
 | Sr   2   0.35717   0.35717   0.00000   |    0.00000   0.00000   4.48446    |
 | Fe   1   0.00000   0.00000   0.00000   |    0.00000   0.00000   0.00000    |
 | O    1   0.84202   0.84202   0.00000   |    0.00000   0.00000  10.57197    |
 | O    2   0.15798   0.15798   0.00000   |    0.00000   0.00000   1.98346    |
 | O    3   0.50000   0.00000   0.50000   |    0.00000   1.95475   0.00000    |
 | O    4   0.00000   0.50000   0.50000   |    1.95475   0.00000   0.00000    |
 *----------------------------------------------------------------------------*
                                -----------
                                PROJECTIONS
                                -----------
  
 +----------------------------------------------------------------------------+
 |     Frac. Coord.   l mr  r        z-axis               x-axis          Z/a |
 +----------------------------------------------------------------------------+
 |  0.00  0.00  0.00  2  1  1  0.000  0.000  1.000  1.000  0.000  0.000   1.0 |
 |  0.00  0.00  0.00  2  2  1  0.000  0.000  1.000  1.000  0.000  0.000   1.0 |
 |  0.00  0.00  0.00  2  3  1  0.000  0.000  1.000  1.000  0.000  0.000   1.0 |
 |  0.00  0.00  0.00  2  4  1  0.000  0.000  1.000  1.000  0.000  0.000   1.0 |
 |  0.00  0.00  0.00  2  5  1  0.000  0.000  1.000  1.000  0.000  0.000   1.0 |
 +----------------------------------------------------------------------------+
  
                                ------------
                                K-POINT GRID
                                ------------
  
             Grid size =  7 x  7 x  7      Total points =  343
  
 *----------------------------------------------------------------------------*
 | k-point      Fractional Coordinate        Cartesian Coordinate (Ang^-1)    |
 +----------------------------------------------------------------------------+
 |     1    0.00000   0.00000   0.00000   |    0.00000   0.00000   0.00000    |
 |     2    0.00000   0.00000   0.14286   |    0.22959   0.22959  -0.00000    |
 |     3    0.00000   0.00000  -0.14286   |   -0.22959  -0.22959   0.00000    |
 |     4    0.14286  -0.14286   0.00000   |   -0.22959   0.22959  -0.00000    |
 |     5   -0.14286   0.14286   0.00000   |    0.22959  -0.22959   0.00000    |
 |     6    0.00000   0.00000   0.28571   |    0.45919   0.45919  -0.00000    |
 |     7    0.00000   0.00000  -0.28571   |   -0.45919  -0.45919   0.00000    |
 |     8    0.28571  -0.28571   0.00000   |   -0.45919   0.45919  -0.00000    |
 |     9   -0.28571   0.28571   0.00000   |    0.45919  -0.45919   0.00000    |
 |    10    0.00000   0.00000   0.42857   |    0.68878   0.68878  -0.00000    |
 |    11    0.00000   0.00000  -0.42857   |   -0.68878  -0.68878   0.00000    |
 |    12    0.42857  -0.42857   0.00000   |   -0.68878   0.68878  -0.00000    |
 |    13   -0.42857   0.42857   0.00000   |    0.68878  -0.68878   0.00000    |
 |    14    0.00000   0.14286   0.00000   |    0.22959  -0.00000   0.07149    |
 |    15    0.00000  -0.14286   0.00000   |   -0.22959   0.00000  -0.07149    |
 |    16    0.14286   0.00000  -0.14286   |   -0.22959   0.00000   0.07149    |
 |    17   -0.14286   0.00000   0.14286   |    0.22959  -0.00000  -0.07149    |
 |    18    0.00000  -0.14286   0.14286   |    0.00000   0.22959  -0.07149    |
 |    19    0.00000   0.14286  -0.14286   |    0.00000  -0.22959   0.07149    |
 |    20   -0.14286   0.00000   0.00000   |    0.00000  -0.22959  -0.07149    |
 |    21    0.14286   0.00000   0.00000   |    0.00000   0.22959   0.07149    |
 |    22    0.00000   0.14286   0.14286   |    0.45919   0.22959   0.07149    |
 |    23    0.00000  -0.14286  -0.14286   |   -0.45919  -0.22959  -0.07149    |
 |    24    0.14286   0.00000  -0.28571   |   -0.45919  -0.22959   0.07149    |
 |    25   -0.14286   0.00000   0.28571   |    0.45919   0.22959  -0.07149    |
 |    26    0.14286  -0.28571   0.00000   |   -0.45919   0.22959  -0.07149    |
 |    27   -0.14286   0.28571   0.00000   |    0.45919  -0.22959   0.07149    |
 |    28   -0.28571   0.14286   0.14286   |    0.45919  -0.22959  -0.07149    |
 |    29    0.28571  -0.14286  -0.14286   |   -0.45919   0.22959   0.07149    |
 |    30    0.00000  -0.14286   0.28571   |    0.22959   0.45919  -0.07149    |
 |    31    0.00000   0.14286  -0.28571   |   -0.22959  -0.45919   0.07149    |
 |    32   -0.14286   0.00000  -0.14286   |   -0.22959  -0.45919  -0.07149    |
 |    33    0.14286   0.00000   0.14286   |    0.22959   0.45919   0.07149    |
 |    34   -0.14286   0.28571  -0.14286   |    0.22959  -0.45919   0.07149    |
 |    35    0.14286  -0.28571   0.14286   |   -0.22959   0.45919  -0.07149    |
 |    36    0.28571  -0.14286   0.00000   |   -0.22959   0.45919   0.07149    |
 |    37   -0.28571   0.14286   0.00000   |    0.22959  -0.45919  -0.07149    |
 |    38    0.00000   0.14286   0.28571   |    0.68878   0.45919   0.07149    |
 |    39    0.00000  -0.14286  -0.28571   |   -0.68878  -0.45919  -0.07149    |
 |    40    0.14286   0.00000  -0.42857   |   -0.68878  -0.45919   0.07149    |
 |    41   -0.14286   0.00000   0.42857   |    0.68878   0.45919  -0.07149    |
 |    42    0.28571  -0.42857   0.00000   |   -0.68878   0.45919  -0.07149    |
 |    43   -0.28571   0.42857   0.00000   |    0.68878  -0.45919   0.07149    |
 |    44   -0.42857   0.28571   0.14286   |    0.68878  -0.45919  -0.07149    |
 |    45    0.42857  -0.28571  -0.14286   |   -0.68878   0.45919   0.07149    |
 |    46    0.00000  -0.14286   0.42857   |    0.45919   0.68878  -0.07149    |
 |    47    0.00000   0.14286  -0.42857   |   -0.45919  -0.68878   0.07149    |
 |    48   -0.14286   0.00000  -0.28571   |   -0.45919  -0.68878  -0.07149    |
 |    49    0.14286   0.00000   0.28571   |    0.45919   0.68878   0.07149    |
 |    50   -0.28571   0.42857  -0.14286   |    0.45919  -0.68878   0.07149    |
 |    51    0.28571  -0.42857   0.14286   |   -0.45919   0.68878  -0.07149    |
 |    52    0.42857  -0.28571   0.00000   |   -0.45919   0.68878   0.07149    |
 |    53   -0.42857   0.28571   0.00000   |    0.45919  -0.68878  -0.07149    |
 |    54    0.00000   0.14286   0.42857   |    0.91838   0.68878   0.07149    |
 |    55    0.00000  -0.14286  -0.42857   |   -0.91838  -0.68878  -0.07149    |
 |    56    0.14286   0.00000   0.42857   |    0.68878   0.91838   0.07149    |
 |    57   -0.14286   0.00000  -0.42857   |   -0.68878  -0.91838  -0.07149    |
 |    58    0.42857   0.42857   0.00000   |    0.68878   0.68878   0.42894    |
 |    59   -0.42857  -0.42857   0.00000   |   -0.68878  -0.68878  -0.42894    |
 |    60    0.42857   0.42857   0.14286   |    0.91838   0.91838   0.42894    |
 |    61   -0.42857  -0.42857  -0.14286   |   -0.91838  -0.91838  -0.42894    |
 |    62    0.00000   0.28571   0.00000   |    0.45919  -0.00000   0.14298    |
 |    63    0.00000  -0.28571   0.00000   |   -0.45919   0.00000  -0.14298    |
 |    64    0.28571   0.00000  -0.28571   |   -0.45919   0.00000   0.14298    |
 |    65   -0.28571   0.00000   0.28571   |    0.45919  -0.00000  -0.14298    |
 |    66    0.00000  -0.28571   0.28571   |    0.00000   0.45919  -0.14298    |
 |    67    0.00000   0.28571  -0.28571   |    0.00000  -0.45919   0.14298    |
 |    68   -0.28571   0.00000   0.00000   |    0.00000  -0.45919  -0.14298    |
 |    69    0.28571   0.00000   0.00000   |    0.00000   0.45919   0.14298    |
 |    70    0.00000   0.28571   0.14286   |    0.68878   0.22959   0.14298    |
 |    71    0.00000  -0.28571  -0.14286   |   -0.68878  -0.22959  -0.14298    |
 |    72    0.28571   0.00000  -0.42857   |   -0.68878  -0.22959   0.14298    |
 |    73   -0.28571   0.00000   0.42857   |    0.68878   0.22959  -0.14298    |
 |    74    0.14286  -0.42857   0.00000   |   -0.68878   0.22959  -0.14298    |
 |    75   -0.14286   0.42857   0.00000   |    0.68878  -0.22959   0.14298    |
 |    76   -0.42857   0.14286   0.28571   |    0.68878  -0.22959  -0.14298    |
 |    77    0.42857  -0.14286  -0.28571   |   -0.68878   0.22959   0.14298    |
 |    78    0.00000  -0.28571   0.42857   |    0.22959   0.68878  -0.14298    |
 |    79    0.00000   0.28571  -0.42857   |   -0.22959  -0.68878   0.14298    |
 |    80   -0.28571   0.00000  -0.14286   |   -0.22959  -0.68878  -0.14298    |
 |    81    0.28571   0.00000   0.14286   |    0.22959   0.68878   0.14298    |
 |    82   -0.14286   0.42857  -0.28571   |    0.22959  -0.68878   0.14298    |
 |    83    0.14286  -0.42857   0.28571   |   -0.22959   0.68878  -0.14298    |
 |    84    0.42857  -0.14286   0.00000   |   -0.22959   0.68878   0.14298    |
 |    85   -0.42857   0.14286   0.00000   |    0.22959  -0.68878  -0.14298    |
 |    86    0.00000   0.28571   0.28571   |    0.91838   0.45919   0.14298    |
 |    87    0.00000  -0.28571  -0.28571   |   -0.91838  -0.45919  -0.14298    |
 |    88    0.28571   0.00000   0.42857   |    0.68878   1.14797   0.14298    |
 |    89   -0.28571   0.00000  -0.42857   |   -0.68878  -1.14797  -0.14298    |
 |    90    0.28571   0.42857   0.00000   |    0.68878   0.45919   0.35745    |
 |    91   -0.28571  -0.42857   0.00000   |   -0.68878  -0.45919  -0.35745    |
 |    92    0.42857   0.28571   0.28571   |    0.91838   1.14797   0.35745    |
 |    93   -0.42857  -0.28571  -0.28571   |   -0.91838  -1.14797  -0.35745    |
 |    94    0.00000  -0.28571  -0.42857   |   -1.14797  -0.68878  -0.14298    |
 |    95    0.00000   0.28571   0.42857   |    1.14797   0.68878   0.14298    |
 |    96   -0.28571   0.00000  -0.28571   |   -0.45919  -0.91838  -0.14298    |
 |    97    0.28571   0.00000   0.28571   |    0.45919   0.91838   0.14298    |
 |    98   -0.28571  -0.42857  -0.28571   |   -1.14797  -0.91838  -0.35745    |
 |    99    0.28571   0.42857   0.28571   |    1.14797   0.91838   0.35745    |
 |   100   -0.42857  -0.28571   0.00000   |   -0.45919  -0.68878  -0.35745    |
 |   101    0.42857   0.28571   0.00000   |    0.45919   0.68878   0.35745    |
 |   102    0.00000   0.28571  -0.14286   |    0.22959  -0.22959   0.14298    |
 |   103    0.00000  -0.28571   0.14286   |   -0.22959   0.22959  -0.14298    |
 |   104    0.28571   0.00000  -0.14286   |   -0.22959   0.22959   0.14298    |
 |   105   -0.28571   0.00000   0.14286   |    0.22959  -0.22959  -0.14298    |
 |   106   -0.14286  -0.14286   0.00000   |   -0.22959  -0.22959  -0.14298    |
 |   107    0.14286   0.14286   0.00000   |    0.22959   0.22959   0.14298    |
 |   108   -0.14286  -0.14286   0.28571   |    0.22959   0.22959  -0.14298    |
 |   109    0.14286   0.14286  -0.28571   |   -0.22959  -0.22959   0.14298    |
 |   110    0.00000   0.42857   0.00000   |    0.68878  -0.00000   0.21447    |
 |   111    0.00000  -0.42857   0.00000   |   -0.68878   0.00000  -0.21447    |
 |   112    0.42857   0.00000  -0.42857   |   -0.68878   0.00000   0.21447    |
 |   113   -0.42857   0.00000   0.42857   |    0.68878  -0.00000  -0.21447    |
 |   114    0.00000  -0.42857   0.42857   |    0.00000   0.68878  -0.21447    |
 |   115    0.00000   0.42857  -0.42857   |    0.00000  -0.68878   0.21447    |
 |   116   -0.42857   0.00000   0.00000   |    0.00000  -0.68878  -0.21447    |
 |   117    0.42857   0.00000   0.00000   |    0.00000   0.68878   0.21447    |
 |   118    0.00000   0.42857   0.14286   |    0.91838   0.22959   0.21447    |
 |   119    0.00000  -0.42857  -0.14286   |   -0.91838  -0.22959  -0.21447    |
 |   120    0.42857   0.00000   0.42857   |    0.68878   1.37757   0.21447    |
 |   121   -0.42857   0.00000  -0.42857   |   -0.68878  -1.37757  -0.21447    |
 |   122    0.14286   0.42857   0.00000   |    0.68878   0.22959   0.28596    |
 |   123   -0.14286  -0.42857   0.00000   |   -0.68878  -0.22959  -0.28596    |
 |   124    0.42857   0.14286   0.42857   |    0.91838   1.37757   0.28596    |
 |   125   -0.42857  -0.14286  -0.42857   |   -0.91838  -1.37757  -0.28596    |
 |   126    0.00000  -0.42857  -0.42857   |   -1.37757  -0.68878  -0.21447    |
 |   127    0.00000   0.42857   0.42857   |    1.37757   0.68878   0.21447    |
 |   128   -0.42857   0.00000  -0.14286   |   -0.22959  -0.91838  -0.21447    |
 |   129    0.42857   0.00000   0.14286   |    0.22959   0.91838   0.21447    |
 |   130   -0.14286  -0.42857  -0.42857   |   -1.37757  -0.91838  -0.28596    |
 |   131    0.14286   0.42857   0.42857   |    1.37757   0.91838   0.28596    |
 |   132   -0.42857  -0.14286   0.00000   |   -0.22959  -0.68878  -0.28596    |
 |   133    0.42857   0.14286   0.00000   |    0.22959   0.68878   0.28596    |
 |   134    0.00000   0.42857   0.28571   |    1.14797   0.45919   0.21447    |
 |   135    0.00000  -0.42857  -0.28571   |   -1.14797  -0.45919  -0.21447    |
 |   136    0.42857   0.00000   0.28571   |    0.45919   1.14797   0.21447    |
 |   137   -0.42857   0.00000  -0.28571   |   -0.45919  -1.14797  -0.21447    |
 |   138    0.28571   0.28571   0.00000   |    0.45919   0.45919   0.28596    |
 |   139   -0.28571  -0.28571   0.00000   |   -0.45919  -0.45919  -0.28596    |
 |   140    0.28571   0.28571   0.42857   |    1.14797   1.14797   0.28596    |
 |   141   -0.28571  -0.28571  -0.42857   |   -1.14797  -1.14797  -0.28596    |
 |   142    0.00000   0.42857  -0.28571   |    0.22959  -0.45919   0.21447    |
 |   143    0.00000  -0.42857   0.28571   |   -0.22959   0.45919  -0.21447    |
 |   144    0.42857   0.00000  -0.14286   |   -0.22959   0.45919   0.21447    |
 |   145   -0.42857   0.00000   0.14286   |    0.22959  -0.45919  -0.21447    |
 |   146   -0.28571  -0.14286   0.00000   |   -0.22959  -0.45919  -0.21447    |
 |   147    0.28571   0.14286   0.00000   |    0.22959   0.45919   0.21447    |
 |   148   -0.14286  -0.28571   0.42857   |    0.22959   0.45919  -0.21447    |
 |   149    0.14286   0.28571  -0.42857   |   -0.22959  -0.45919   0.21447    |
 |   150    0.00000  -0.42857   0.14286   |   -0.45919   0.22959  -0.21447    |
 |   151    0.00000   0.42857  -0.14286   |    0.45919  -0.22959   0.21447    |
 |   152   -0.42857   0.00000   0.28571   |    0.45919  -0.22959  -0.21447    |
 |   153    0.42857   0.00000  -0.28571   |   -0.45919   0.22959   0.21447    |
 |   154    0.28571   0.14286  -0.42857   |   -0.45919  -0.22959   0.21447    |
 |   155   -0.28571  -0.14286   0.42857   |    0.45919   0.22959  -0.21447    |
 |   156    0.14286   0.28571   0.00000   |    0.45919   0.22959   0.21447    |
 |   157   -0.14286  -0.28571   0.00000   |   -0.45919  -0.22959  -0.21447    |
 |   158    0.14286   0.14286   0.14286   |    0.45919   0.45919   0.14298    |
 |   159   -0.14286  -0.14286  -0.14286   |   -0.45919  -0.45919  -0.14298    |
 |   160    0.14286   0.14286  -0.42857   |   -0.45919  -0.45919   0.14298    |
 |   161   -0.14286  -0.14286   0.42857   |    0.45919   0.45919  -0.14298    |
 |   162    0.14286  -0.42857   0.14286   |   -0.45919   0.45919  -0.14298    |
 |   163   -0.14286   0.42857  -0.14286   |    0.45919  -0.45919   0.14298    |
 |   164   -0.42857   0.14286   0.14286   |    0.45919  -0.45919  -0.14298    |
 |   165    0.42857  -0.14286  -0.14286   |   -0.45919   0.45919   0.14298    |
 |   166    0.14286   0.14286   0.28571   |    0.68878   0.68878   0.14298    |
 |   167   -0.14286  -0.14286  -0.28571   |   -0.68878  -0.68878  -0.14298    |
 |   168    0.14286   0.14286   0.42857   |    0.91838   0.91838   0.14298    |
 |   169   -0.14286  -0.14286  -0.42857   |   -0.91838  -0.91838  -0.14298    |
 |   170    0.28571   0.42857   0.14286   |    0.91838   0.68878   0.35745    |
 |   171   -0.28571  -0.42857  -0.14286   |   -0.91838  -0.68878  -0.35745    |
 |   172    0.42857   0.28571   0.14286   |    0.68878   0.91838   0.35745    |
 |   173   -0.42857  -0.28571  -0.14286   |   -0.68878  -0.91838  -0.35745    |
 |   174    0.14286   0.14286  -0.14286   |    0.00000   0.00000   0.14298    |
 |   175   -0.14286  -0.14286   0.14286   |    0.00000   0.00000  -0.14298    |
 |   176    0.14286   0.28571   0.14286   |    0.68878   0.45919   0.21447    |
 |   177   -0.14286  -0.28571  -0.14286   |   -0.68878  -0.45919  -0.21447    |
 |   178    0.28571   0.14286   0.42857   |    0.91838   1.14797   0.21447    |
 |   179   -0.28571  -0.14286  -0.42857   |   -0.91838  -1.14797  -0.21447    |
 |   180    0.14286   0.42857   0.14286   |    0.91838   0.45919   0.28596    |
 |   181   -0.14286  -0.42857  -0.14286   |   -0.91838  -0.45919  -0.28596    |
 |   182    0.42857   0.14286   0.28571   |    0.68878   1.14797   0.28596    |
 |   183   -0.42857  -0.14286  -0.28571   |   -0.68878  -1.14797  -0.28596    |
 |   184   -0.14286  -0.28571  -0.42857   |   -1.14797  -0.91838  -0.21447    |
 |   185    0.14286   0.28571   0.42857   |    1.14797   0.91838   0.21447    |
 |   186   -0.28571  -0.14286  -0.14286   |   -0.45919  -0.68878  -0.21447    |
 |   187    0.28571   0.14286   0.14286   |    0.45919   0.68878   0.21447    |
 |   188   -0.14286  -0.42857  -0.28571   |   -1.14797  -0.68878  -0.28596    |
 |   189    0.14286   0.42857   0.28571   |    1.14797   0.68878   0.28596    |
 |   190   -0.42857  -0.14286  -0.14286   |   -0.45919  -0.91838  -0.28596    |
 |   191    0.42857   0.14286   0.14286   |    0.45919   0.91838   0.28596    |
 |   192    0.14286   0.28571   0.28571   |    0.91838   0.68878   0.21447    |
 |   193   -0.14286  -0.28571  -0.28571   |   -0.91838  -0.68878  -0.21447    |
 |   194    0.28571   0.14286   0.28571   |    0.68878   0.91838   0.21447    |
 |   195   -0.28571  -0.14286  -0.28571   |   -0.68878  -0.91838  -0.21447    |
 |   196    0.28571   0.28571   0.14286   |    0.68878   0.68878   0.28596    |
 |   197   -0.28571  -0.28571  -0.14286   |   -0.68878  -0.68878  -0.28596    |
 |   198    0.28571   0.28571   0.28571   |    0.91838   0.91838   0.28596    |
 |   199   -0.28571  -0.28571  -0.28571   |   -0.91838  -0.91838  -0.28596    |
 |   200    0.14286   0.28571  -0.28571   |    0.00000  -0.22959   0.21447    |
 |   201   -0.14286  -0.28571   0.28571   |    0.00000   0.22959  -0.21447    |
 |   202    0.28571   0.14286  -0.14286   |    0.00000   0.22959   0.21447    |
 |   203   -0.28571  -0.14286   0.14286   |    0.00000  -0.22959  -0.21447    |
 |   204   -0.14286  -0.28571   0.14286   |   -0.22959   0.00000  -0.21447    |
 |   205    0.14286   0.28571  -0.14286   |    0.22959  -0.00000   0.21447    |
 |   206   -0.28571  -0.14286   0.28571   |    0.22959  -0.00000  -0.21447    |
 |   207    0.28571   0.14286  -0.28571   |   -0.22959   0.00000   0.21447    |
 |   208    0.14286   0.42857  -0.42857   |    0.00000  -0.45919   0.28596    |
 |   209   -0.14286  -0.42857   0.42857   |    0.00000   0.45919  -0.28596    |
 |   210    0.42857   0.14286  -0.14286   |    0.00000   0.45919   0.28596    |
 |   211   -0.42857  -0.14286   0.14286   |    0.00000  -0.45919  -0.28596    |
 |   212   -0.14286  -0.42857   0.14286   |   -0.45919   0.00000  -0.28596    |
 |   213    0.14286   0.42857  -0.14286   |    0.45919  -0.00000   0.28596    |
 |   214   -0.42857  -0.14286   0.42857   |    0.45919  -0.00000  -0.28596    |
 |   215    0.42857   0.14286  -0.42857   |   -0.45919   0.00000   0.28596    |
 |   216    0.14286   0.42857  -0.28571   |    0.22959  -0.22959   0.28596    |
 |   217   -0.14286  -0.42857   0.28571   |   -0.22959   0.22959  -0.28596    |
 |   218    0.42857   0.14286  -0.28571   |   -0.22959   0.22959   0.28596    |
 |   219   -0.42857  -0.14286   0.28571   |    0.22959  -0.22959  -0.28596    |
 |   220   -0.28571  -0.28571   0.14286   |   -0.22959  -0.22959  -0.28596    |
 |   221    0.28571   0.28571  -0.14286   |    0.22959   0.22959   0.28596    |
 |   222   -0.28571  -0.28571   0.42857   |    0.22959   0.22959  -0.28596    |
 |   223    0.28571   0.28571  -0.42857   |   -0.22959  -0.22959   0.28596    |
 |   224    0.14286  -0.42857   0.42857   |    0.00000   0.91838  -0.14298    |
 |   225   -0.14286   0.42857  -0.42857   |    0.00000  -0.91838   0.14298    |
 |   226   -0.42857   0.14286  -0.14286   |    0.00000  -0.91838  -0.14298    |
 |   227    0.42857  -0.14286   0.14286   |    0.00000   0.91838   0.14298    |
 |   228   -0.14286   0.42857   0.14286   |    0.91838  -0.00000   0.14298    |
 |   229    0.14286  -0.42857  -0.14286   |   -0.91838   0.00000  -0.14298    |
 |   230    0.42857  -0.14286  -0.42857   |   -0.91838   0.00000   0.14298    |
 |   231   -0.42857   0.14286   0.42857   |    0.91838  -0.00000  -0.14298    |
 |   232    0.14286  -0.42857  -0.42857   |   -1.37757  -0.45919  -0.14298    |
 |   233   -0.14286   0.42857   0.42857   |    1.37757   0.45919   0.14298    |
 |   234   -0.42857   0.14286  -0.28571   |   -0.22959  -1.14797  -0.14298    |
 |   235    0.42857  -0.14286   0.28571   |    0.22959   1.14797   0.14298    |
 |   236   -0.42857  -0.28571   0.14286   |   -0.22959  -0.45919  -0.35745    |
 |   237    0.42857   0.28571  -0.14286   |    0.22959   0.45919   0.35745    |
 |   238   -0.28571  -0.42857  -0.42857   |   -1.37757  -1.14797  -0.35745    |
 |   239    0.28571   0.42857   0.42857   |    1.37757   1.14797   0.35745    |
 |   240   -0.14286   0.42857   0.28571   |    1.14797   0.22959   0.14298    |
 |   241    0.14286  -0.42857  -0.28571   |   -1.14797  -0.22959  -0.14298    |
 |   242    0.42857  -0.14286   0.42857   |    0.45919   1.37757   0.14298    |
 |   243   -0.42857   0.14286  -0.42857   |   -0.45919  -1.37757  -0.14298    |
 |   244    0.42857   0.28571   0.42857   |    1.14797   1.37757   0.35745    |
 |   245   -0.42857  -0.28571  -0.42857   |   -1.14797  -1.37757  -0.35745    |
 |   246    0.28571   0.42857  -0.14286   |    0.45919   0.22959   0.35745    |
 |   247   -0.28571  -0.42857   0.14286   |   -0.45919  -0.22959  -0.35745    |
 |   248    0.14286  -0.28571   0.28571   |    0.00000   0.68878  -0.07149    |
 |   249   -0.14286   0.28571  -0.28571   |    0.00000  -0.68878   0.07149    |
 |   250   -0.28571   0.14286  -0.14286   |    0.00000  -0.68878  -0.07149    |
 |   251    0.28571  -0.14286   0.14286   |    0.00000   0.68878   0.07149    |
 |   252   -0.14286   0.28571   0.14286   |    0.68878  -0.00000   0.07149    |
 |   253    0.14286  -0.28571  -0.14286   |   -0.68878   0.00000  -0.07149    |
 |   254    0.28571  -0.14286  -0.28571   |   -0.68878   0.00000   0.07149    |
 |   255   -0.28571   0.14286   0.28571   |    0.68878  -0.00000  -0.07149    |
 |   256    0.14286  -0.28571   0.42857   |    0.22959   0.91838  -0.07149    |
 |   257   -0.14286   0.28571  -0.42857   |   -0.22959  -0.91838   0.07149    |
 |   258   -0.28571   0.14286  -0.28571   |   -0.22959  -0.91838  -0.07149    |
 |   259    0.28571  -0.14286   0.28571   |    0.22959   0.91838   0.07149    |
 |   260    0.42857  -0.28571   0.14286   |   -0.22959   0.91838   0.07149    |
 |   261   -0.42857   0.28571  -0.14286   |    0.22959  -0.91838  -0.07149    |
 |   262   -0.28571   0.42857  -0.28571   |    0.22959  -0.91838   0.07149    |
 |   263    0.28571  -0.42857   0.28571   |   -0.22959   0.91838  -0.07149    |
 |   264   -0.14286   0.28571   0.28571   |    0.91838   0.22959   0.07149    |
 |   265    0.14286  -0.28571  -0.28571   |   -0.91838  -0.22959  -0.07149    |
 |   266    0.28571  -0.14286  -0.42857   |   -0.91838  -0.22959   0.07149    |
 |   267   -0.28571   0.14286   0.42857   |    0.91838   0.22959  -0.07149    |
 |   268   -0.42857   0.28571   0.28571   |    0.91838  -0.22959  -0.07149    |
 |   269    0.42857  -0.28571  -0.28571   |   -0.91838   0.22959   0.07149    |
 |   270    0.28571  -0.42857  -0.14286   |   -0.91838   0.22959  -0.07149    |
 |   271   -0.28571   0.42857   0.14286   |    0.91838  -0.22959   0.07149    |
 |   272    0.14286  -0.28571  -0.42857   |   -1.14797  -0.45919  -0.07149    |
 |   273   -0.14286   0.28571   0.42857   |    1.14797   0.45919   0.07149    |
 |   274   -0.28571   0.14286  -0.42857   |   -0.45919  -1.14797  -0.07149    |
 |   275    0.28571  -0.14286   0.42857   |    0.45919   1.14797   0.07149    |
 |   276   -0.42857  -0.42857   0.14286   |   -0.45919  -0.45919  -0.42894    |
 |   277    0.42857   0.42857  -0.14286   |    0.45919   0.45919   0.42894    |
 |   278   -0.42857  -0.42857  -0.28571   |   -1.14797  -1.14797  -0.42894    |
 |   279    0.42857   0.42857   0.28571   |    1.14797   1.14797   0.42894    |
 |   280    0.14286  -0.14286   0.14286   |    0.00000   0.45919  -0.00000    |
 |   281   -0.14286   0.14286  -0.14286   |    0.00000  -0.45919   0.00000    |
 |   282   -0.14286   0.14286   0.14286   |    0.45919  -0.00000  -0.00000    |
 |   283    0.14286  -0.14286  -0.14286   |   -0.45919   0.00000   0.00000    |
 |   284    0.14286  -0.14286   0.28571   |    0.22959   0.68878  -0.00000    |
 |   285   -0.14286   0.14286  -0.28571   |   -0.22959  -0.68878   0.00000    |
 |   286    0.28571  -0.28571   0.14286   |   -0.22959   0.68878  -0.00000    |
 |   287   -0.28571   0.28571  -0.14286   |    0.22959  -0.68878   0.00000    |
 |   288   -0.14286   0.14286   0.28571   |    0.68878   0.22959  -0.00000    |
 |   289    0.14286  -0.14286  -0.28571   |   -0.68878  -0.22959   0.00000    |
 |   290   -0.28571   0.28571   0.14286   |    0.68878  -0.22959  -0.00000    |
 |   291    0.28571  -0.28571  -0.14286   |   -0.68878   0.22959   0.00000    |
 |   292    0.14286  -0.14286   0.42857   |    0.45919   0.91838  -0.00000    |
 |   293   -0.14286   0.14286  -0.42857   |   -0.45919  -0.91838   0.00000    |
 |   294    0.42857  -0.42857   0.14286   |   -0.45919   0.91838  -0.00000    |
 |   295   -0.42857   0.42857  -0.14286   |    0.45919  -0.91838   0.00000    |
 |   296   -0.14286   0.14286   0.42857   |    0.91838   0.45919  -0.00000    |
 |   297    0.14286  -0.14286  -0.42857   |   -0.91838  -0.45919   0.00000    |
 |   298   -0.42857   0.42857   0.14286   |    0.91838  -0.45919  -0.00000    |
 |   299    0.42857  -0.42857  -0.14286   |   -0.91838   0.45919   0.00000    |
 |   300    0.28571   0.28571  -0.28571   |    0.00000  -0.00000   0.28596    |
 |   301   -0.28571  -0.28571   0.28571   |    0.00000   0.00000  -0.28596    |
 |   302    0.28571   0.42857  -0.42857   |    0.00000  -0.22959   0.35745    |
 |   303   -0.28571  -0.42857   0.42857   |    0.00000   0.22959  -0.35745    |
 |   304    0.42857   0.28571  -0.28571   |    0.00000   0.22959   0.35745    |
 |   305   -0.42857  -0.28571   0.28571   |    0.00000  -0.22959  -0.35745    |
 |   306   -0.28571  -0.42857   0.28571   |   -0.22959   0.00000  -0.35745    |
 |   307    0.28571   0.42857  -0.28571   |    0.22959  -0.00000   0.35745    |
 |   308   -0.42857  -0.28571   0.42857   |    0.22959  -0.00000  -0.35745    |
 |   309    0.42857   0.28571  -0.42857   |   -0.22959   0.00000   0.35745    |
 |   310    0.28571  -0.42857   0.42857   |    0.00000   1.14797  -0.07149    |
 |   311   -0.28571   0.42857  -0.42857   |    0.00000  -1.14797   0.07149    |
 |   312   -0.42857   0.28571  -0.28571   |    0.00000  -1.14797  -0.07149    |
 |   313    0.42857  -0.28571   0.28571   |    0.00000   1.14797   0.07149    |
 |   314   -0.28571   0.42857   0.28571   |    1.14797  -0.00000   0.07149    |
 |   315    0.28571  -0.42857  -0.28571   |   -1.14797   0.00000  -0.07149    |
 |   316    0.42857  -0.28571  -0.42857   |   -1.14797   0.00000   0.07149    |
 |   317   -0.42857   0.28571   0.42857   |    1.14797  -0.00000  -0.07149    |
 |   318    0.28571  -0.42857  -0.42857   |   -1.37757  -0.22959  -0.07149    |
 |   319   -0.28571   0.42857   0.42857   |    1.37757   0.22959   0.07149    |
 |   320   -0.42857   0.28571  -0.42857   |   -0.22959  -1.37757  -0.07149    |
 |   321    0.42857  -0.28571   0.42857   |    0.22959   1.37757   0.07149    |
 |   322   -0.42857  -0.42857   0.28571   |   -0.22959  -0.22959  -0.42894    |
 |   323    0.42857   0.42857  -0.28571   |    0.22959   0.22959   0.42894    |
 |   324   -0.42857  -0.42857  -0.42857   |   -1.37757  -1.37757  -0.42894    |
 |   325    0.42857   0.42857   0.42857   |    1.37757   1.37757   0.42894    |
 |   326    0.28571  -0.28571   0.28571   |    0.00000   0.91838  -0.00000    |
 |   327   -0.28571   0.28571  -0.28571   |    0.00000  -0.91838   0.00000    |
 |   328   -0.28571   0.28571   0.28571   |    0.91838  -0.00000  -0.00000    |
 |   329    0.28571  -0.28571  -0.28571   |   -0.91838   0.00000   0.00000    |
 |   330    0.28571  -0.28571   0.42857   |    0.22959   1.14797  -0.00000    |
 |   331   -0.28571   0.28571  -0.42857   |   -0.22959  -1.14797   0.00000    |
 |   332    0.42857  -0.42857   0.28571   |   -0.22959   1.14797  -0.00000    |
 |   333   -0.42857   0.42857  -0.28571   |    0.22959  -1.14797   0.00000    |
 |   334   -0.28571   0.28571   0.42857   |    1.14797   0.22959  -0.00000    |
 |   335    0.28571  -0.28571  -0.42857   |   -1.14797  -0.22959   0.00000    |
 |   336   -0.42857   0.42857   0.28571   |    1.14797  -0.22959  -0.00000    |
 |   337    0.42857  -0.42857  -0.28571   |   -1.14797   0.22959   0.00000    |
 |   338    0.42857   0.42857  -0.42857   |    0.00000  -0.00000   0.42894    |
 |   339   -0.42857  -0.42857   0.42857   |    0.00000   0.00000  -0.42894    |
 |   340    0.42857  -0.42857   0.42857   |    0.00000   1.37757  -0.00000    |
 |   341   -0.42857   0.42857  -0.42857   |    0.00000  -1.37757   0.00000    |
 |   342   -0.42857   0.42857   0.42857   |    1.37757  -0.00000  -0.00000    |
 |   343    0.42857  -0.42857  -0.42857   |   -1.37757   0.00000   0.00000    |
 *----------------------------------------------------------------------------*
  
  
 *---------------------------------- MAIN ------------------------------------*
 |  Number of Wannier Functions               :                 5             |
 |  Number of Objective Wannier Functions     :                 5             |
 |  Number of input Bloch states              :                 8             |
 |  Output verbosity (1=low, 5=high)          :                 2             |
 |  Timing Level (1=low, 5=high)              :                 1             |
 |  Optimisation (0=memory, 3=speed)          :                 3             |
 |  Length Unit                               :               Ang             |
 |  Post-processing setup (write *.nnkp)      :                 F             |
 |  Using Gamma-only branch of algorithms     :                 F             |
 *----------------------------------------------------------------------------*
 *------------------------------- WANNIERISE ---------------------------------*
 |  Total number of iterations                :              1000             |
 |  Number of CG steps before reset           :                 5             |
 |  Trial step length for line search         :             2.000             |
 |  Convergence tolerence                     :         0.100E-11             |
 |  Convergence window                        :                 5             |
 |  Iterations between writing output         :                 1             |
 |  Iterations between backing up to disk     :               100             |
 |  Write r^2_nm to file                      :                 F             |
 |  Write xyz WF centres to file              :                 F             |
 |  Write on-site energies <0n|H|0n> to file  :                 F             |
 |  Use guiding centre to control phases      :                 F             |
 |  Use phases for initial projections        :                 F             |
 *----------------------------------------------------------------------------*
 *------------------------------- DISENTANGLE --------------------------------*
 |  Using band disentanglement                :                 T             |
 |  Total number of iterations                :              1000             |
 |  Mixing ratio                              :             0.500             |
 |  Convergence tolerence                     :         1.000E-12             |
 |  Convergence window                        :                 3             |
 *----------------------------------------------------------------------------*
 *-------------------------------- PLOTTING ----------------------------------*
 |  Plotting interpolated bandstructure       :                 T             |
 |   Number of K-path sections                :                 4             |
 |   Divisions along first K-path section     :               100             |
 |   Output format                            :           gnuplot             |
 |   Output mode                              :               s-k             |
 *----------------------------------------------------------------------------*
 |   K-space path sections:                                                   |
 |    From: G       0.000  0.000  0.000     To: N       0.000  0.500  0.000   |
 |    From: N       0.000  0.500  0.000     To: X       0.000  0.000  0.500   |
 |    From: X       0.000  0.000  0.500     To: G       0.000  0.000  0.000   |
 |    From: G       0.000  0.000  0.000     To: M       0.250  0.250 -0.250   |
 *----------------------------------------------------------------------------*
 |  Plotting Hamiltonian in WF basis          :                 T             |
 *----------------------------------------------------------------------------*
 Time to read parameters        0.025 (sec)

 *---------------------------------- K-MESH ----------------------------------*
 +----------------------------------------------------------------------------+
 |                    Distance to Nearest-Neighbour Shells                    |
 |                    ------------------------------------                    |
 |          Shell             Distance (Ang^-1)          Multiplicity         |
 |          -----             -----------------          ------------         |
 |             1                   0.142982                      2            |
 |             2                   0.240468                      8            |
 |             3                   0.285963                      2            |
 |             4                   0.314185                      8            |
 |             5                   0.324696                      4            |
 |             6                   0.354783                      8            |
 |             7                   0.424838                      8            |
 |             8                   0.428945                      2            |
 |             9                   0.432669                      8            |
 |            10                   0.459189                      4            |
 |            11                   0.480935                      8            |
 |            12                   0.518343                     16            |
 |            13                   0.537979                      8            |
 |            14                   0.540953                      8            |
 |            15                   0.550590                      8            |
 |            16                   0.556387                     16            |
 |            17                   0.571926                      2            |
 |            18                   0.625573                     16            |
 |            19                   0.628370                      8            |
 |            20                   0.649392                      4            |
 |            21                   0.657668                      8            |
 |            22                   0.664946                      8            |
 |            23                   0.683154                      8            |
 |            24                   0.692484                      8            |
 |            25                   0.709566                      8            |
 |            26                   0.714908                      2            |
 |            27                   0.716941                     16            |
 |            28                   0.721403                      8            |
 |            29                   0.726042                      8            |
 |            30                   0.733454                      8            |
 |            31                   0.739987                     16            |
 |            32                   0.776013                      8            |
 |            33                   0.778269                      8            |
 |            34                   0.780328                     16            |
 |            35                   0.785189                      8            |
 |            36                   0.819229                      8            |
 +----------------------------------------------------------------------------+
 | The b-vectors are chosen automatically                                     |
 | Shell:  1 w_b   24.4573601      (Ang^2)                                    |
 | Shell:  1 w_b   19.7147587      (Ang^2)                                    |
 | Shell:  2 w_b    4.7426014      (Ang^2)                                    |
 | The following shells are used:   1,  2                                     |
 +----------------------------------------------------------------------------+
 |                        Shell   # Nearest-Neighbours                        |
 |                        -----   --------------------                        |
 |                          1               2                                 |
 |                          2               8                                 |
 +----------------------------------------------------------------------------+
 | Completeness relation is fully satisfied [Eq. (B1), PRB 56, 12847 (1997)]  |
 +----------------------------------------------------------------------------+
 |                  b_k Vectors (Ang^-1) and Weights (Ang^2)                  |
 |                  ----------------------------------------                  |
 |            No.         b_k(x)      b_k(y)      b_k(z)        w_b           |
 |            ---        --------------------------------     --------        |
 |             1         0.000000    0.000000    0.142982    19.714759        |
 |             2         0.000000    0.000000   -0.142982    19.714759        |
 |             3         0.229595   -0.000000    0.071491     4.742601        |
 |             4        -0.229595    0.000000   -0.071491     4.742601        |
 |             5        -0.229595    0.000000    0.071491     4.742601        |
 |             6         0.229595   -0.000000   -0.071491     4.742601        |
 |             7         0.000000    0.229595   -0.071491     4.742601        |
 |             8         0.000000   -0.229595    0.071491     4.742601        |
 |             9         0.000000   -0.229595   -0.071491     4.742601        |
 |            10         0.000000    0.229595    0.071491     4.742601        |
 +----------------------------------------------------------------------------+
 |                           b_k Directions (Ang^-1)                          |
 |                           -----------------------                          |
 |            No.           x           y           z                         |
 |            ---        --------------------------------                     |
 |             1         0.000000    0.000000    0.142982                     |
 |             2         0.229595   -0.000000    0.071491                     |
 |             3        -0.229595    0.000000    0.071491                     |
 |             4         0.000000    0.229595   -0.071491                     |
 |             5         0.000000   -0.229595   -0.071491                     |
 +----------------------------------------------------------------------------+
  
 Time to get kmesh              0.099 (sec)
 *============================================================================*
 |                              MEMORY ESTIMATE                               |
 |         Maximum RAM allocated during each phase of the calculation         |
 *============================================================================*
 |                        Disentanglement            5.43 Mb                  |
 |                            Wannierise:            4.19 Mb                  |
 |                                                                            |
 |   N.B. by setting optimisation=0 memory usage will be reduced to:          |
 |                        Disentanglement            4.80 Mb                  |
 |                            Wannierise:            2.88 Mb                  |
 |   However, this will result in more i/o and slow down the calculation      |
 |                          plot_wannier:            4.19 Mb                  |
 *----------------------------------------------------------------------------*
  
 Starting a new Wannier90 calculation ...


 Reading overlaps from sfo.mmn    :  Created on 23Feb2024 at 10:26:18

 Reading projections from sfo.amn :  Created on 23Feb2024 at 10:26:17

 Time to read overlaps          0.112 (sec)

 *------------------------------- DISENTANGLE --------------------------------*
 +----------------------------------------------------------------------------+
 |                              Energy  Windows                               |
 |                              ---------------                               |
 |                   Outer:    7.60000  to   12.70000  (eV)                   |
 |                   Inner:    8.60000  to   12.70000  (eV)                   |
 +----------------------------------------------------------------------------+
 |                        K-points with Frozen States                         |
 |                        ---------------------------                         |
 |     1     2     3     4     5     6     7     8     9    10    11    12    |
 |    13    14    15    16    17    18    19    20    21    22    23    24    |
 |    25    26    27    28    29    30    31    32    33    34    35    36    |
 |    37    38    39    40    41    42    43    44    45    46    47    48    |
 |    49    50    51    52    53    54    55    56    57    58    59    60    |
 |    61    62    63    64    65    66    67    68    69    70    71    72    |
 |    73    74    75    76    77    78    79    80    81    82    83    84    |
 |    85    86    87    88    89    90    91    92    93    94    95    96    |
 |    97    98    99   100   101   102   103   104   105   106   107   108    |
 |   109   110   111   112   113   114   115   116   117   118   119   120    |
 |   121   122   123   124   125   126   127   128   129   130   131   132    |
 |   133   134   135   136   137   138   139   140   141   142   143   144    |
 |   145   146   147   148   149   150   151   152   153   154   155   156    |
 |   157   158   159   160   161   162   163   164   165   166   167   168    |
 |   169   170   171   172   173   174   175   176   177   178   179   180    |
 |   181   182   183   184   185   186   187   188   189   190   191   192    |
 |   193   194   195   196   197   198   199   200   201   202   203   204    |
 |   205   206   207   208   209   210   211   212   213   214   215   216    |
 |   217   218   219   220   221   222   223   224   225   226   227   228    |
 |   229   230   231   232   233   234   235   236   237   238   239   240    |
 |   241   242   243   244   245   246   247   248   249   250   251   252    |
 |   253   254   255   256   257   258   259   260   261   262   263   264    |
 |   265   266   267   268   269   270   271   272   273   274   275   276    |
 |   277   278   279   280   281   282   283   284   285   286   287   288    |
 |   289   290   291   292   293   294   295   296   297   298   299   300    |
 |   301   302   303   304   305   306   307   308   309   310   311   312    |
 |   313   314   315   316   317   318   319   320   321   322   323   324    |
 |   325   326   327   328   329   330   331   332   333   334   335   336    |
 |   337   338   339   340   341   342   343                                  |
 +----------------------------------------------------------------------------+
   Number of target bands to extract:    5
 +----------------------------------------------------------------------------+
 |                                  Windows                                   |
 |                                  -------                                   |
 |               K-point      Ndimwin     Ndimfroz    Nfirstwin               |
 |               ----------------------------------------------               |
 |                   1            8            4           1                  |
 |                   2            8            4           1                  |
 |                   3            8            4           1                  |
 |                   4            8            4           1                  |
 |                   5            8            4           1                  |
 |                   6            8            5           1                  |
 |                   7            8            5           1                  |
 |                   8            8            5           1                  |
 |                   9            8            5           1                  |
 |                  10            8            5           1                  |
 |                  11            8            5           1                  |
 |                  12            8            5           1                  |
 |                  13            8            5           1                  |
 |                  14            8            4           1                  |
 |                  15            8            4           1                  |
 |                  16            8            4           1                  |
 |                  17            8            4           1                  |
 |                  18            8            4           1                  |
 |                  19            8            4           1                  |
 |                  20            8            4           1                  |
 |                  21            8            4           1                  |
 |                  22            8            5           1                  |
 |                  23            8            5           1                  |
 |                  24            8            5           1                  |
 |                  25            8            5           1                  |
 |                  26            8            5           1                  |
 |                  27            8            5           1                  |
 |                  28            8            5           1                  |
 |                  29            8            5           1                  |
 |                  30            8            5           1                  |
 |                  31            8            5           1                  |
 |                  32            8            5           1                  |
 |                  33            8            5           1                  |
 |                  34            8            5           1                  |
 |                  35            8            5           1                  |
 |                  36            8            5           1                  |
 |                  37            8            5           1                  |
 |                  38            8            5           1                  |
 |                  39            8            5           1                  |
 |                  40            8            5           1                  |
 |                  41            8            5           1                  |
 |                  42            8            5           1                  |
 |                  43            8            5           1                  |
 |                  44            8            5           1                  |
 |                  45            8            5           1                  |
 |                  46            8            5           1                  |
 |                  47            8            5           1                  |
 |                  48            8            5           1                  |
 |                  49            8            5           1                  |
 |                  50            8            5           1                  |
 |                  51            8            5           1                  |
 |                  52            8            5           1                  |
 |                  53            8            5           1                  |
 |                  54            8            5           1                  |
 |                  55            8            5           1                  |
 |                  56            8            5           1                  |
 |                  57            8            5           1                  |
 |                  58            8            5           1                  |
 |                  59            8            5           1                  |
 |                  60            8            5           1                  |
 |                  61            8            5           1                  |
 |                  62            8            5           1                  |
 |                  63            8            5           1                  |
 |                  64            8            5           1                  |
 |                  65            8            5           1                  |
 |                  66            8            5           1                  |
 |                  67            8            5           1                  |
 |                  68            8            5           1                  |
 |                  69            8            5           1                  |
 |                  70            8            5           1                  |
 |                  71            8            5           1                  |
 |                  72            8            5           1                  |
 |                  73            8            5           1                  |
 |                  74            8            5           1                  |
 |                  75            8            5           1                  |
 |                  76            8            5           1                  |
 |                  77            8            5           1                  |
 |                  78            8            5           1                  |
 |                  79            8            5           1                  |
 |                  80            8            5           1                  |
 |                  81            8            5           1                  |
 |                  82            8            5           1                  |
 |                  83            8            5           1                  |
 |                  84            8            5           1                  |
 |                  85            8            5           1                  |
 |                  86            8            5           1                  |
 |                  87            8            5           1                  |
 |                  88            8            5           1                  |
 |                  89            8            5           1                  |
 |                  90            8            5           1                  |
 |                  91            8            5           1                  |
 |                  92            8            5           1                  |
 |                  93            8            5           1                  |
 |                  94            8            5           1                  |
 |                  95            8            5           1                  |
 |                  96            8            5           1                  |
 |                  97            8            5           1                  |
 |                  98            8            5           1                  |
 |                  99            8            5           1                  |
 |                 100            8            5           1                  |
 |                 101            8            5           1                  |
 |                 102            8            4           1                  |
 |                 103            8            4           1                  |
 |                 104            8            4           1                  |
 |                 105            8            4           1                  |
 |                 106            8            4           1                  |
 |                 107            8            4           1                  |
 |                 108            8            4           1                  |
 |                 109            8            4           1                  |
 |                 110            8            5           1                  |
 |                 111            8            5           1                  |
 |                 112            8            5           1                  |
 |                 113            8            5           1                  |
 |                 114            8            5           1                  |
 |                 115            8            5           1                  |
 |                 116            8            5           1                  |
 |                 117            8            5           1                  |
 |                 118            8            5           1                  |
 |                 119            8            5           1                  |
 |                 120            8            5           1                  |
 |                 121            8            5           1                  |
 |                 122            8            5           1                  |
 |                 123            8            5           1                  |
 |                 124            8            5           1                  |
 |                 125            8            5           1                  |
 |                 126            8            5           1                  |
 |                 127            8            5           1                  |
 |                 128            8            5           1                  |
 |                 129            8            5           1                  |
 |                 130            8            5           1                  |
 |                 131            8            5           1                  |
 |                 132            8            5           1                  |
 |                 133            8            5           1                  |
 |                 134            8            5           1                  |
 |                 135            8            5           1                  |
 |                 136            8            5           1                  |
 |                 137            8            5           1                  |
 |                 138            8            5           1                  |
 |                 139            8            5           1                  |
 |                 140            8            5           1                  |
 |                 141            8            5           1                  |
 |                 142            8            5           1                  |
 |                 143            8            5           1                  |
 |                 144            8            5           1                  |
 |                 145            8            5           1                  |
 |                 146            8            5           1                  |
 |                 147            8            5           1                  |
 |                 148            8            5           1                  |
 |                 149            8            5           1                  |
 |                 150            8            5           1                  |
 |                 151            8            5           1                  |
 |                 152            8            5           1                  |
 |                 153            8            5           1                  |
 |                 154            8            5           1                  |
 |                 155            8            5           1                  |
 |                 156            8            5           1                  |
 |                 157            8            5           1                  |
 |                 158            8            5           1                  |
 |                 159            8            5           1                  |
 |                 160            8            5           1                  |
 |                 161            8            5           1                  |
 |                 162            8            5           1                  |
 |                 163            8            5           1                  |
 |                 164            8            5           1                  |
 |                 165            8            5           1                  |
 |                 166            8            5           1                  |
 |                 167            8            5           1                  |
 |                 168            8            5           1                  |
 |                 169            8            5           1                  |
 |                 170            8            5           1                  |
 |                 171            8            5           1                  |
 |                 172            8            5           1                  |
 |                 173            8            5           1                  |
 |                 174            8            4           1                  |
 |                 175            8            4           1                  |
 |                 176            8            5           1                  |
 |                 177            8            5           1                  |
 |                 178            8            5           1                  |
 |                 179            8            5           1                  |
 |                 180            8            5           1                  |
 |                 181            8            5           1                  |
 |                 182            8            5           1                  |
 |                 183            8            5           1                  |
 |                 184            8            5           1                  |
 |                 185            8            5           1                  |
 |                 186            8            5           1                  |
 |                 187            8            5           1                  |
 |                 188            8            5           1                  |
 |                 189            8            5           1                  |
 |                 190            8            5           1                  |
 |                 191            8            5           1                  |
 |                 192            8            5           1                  |
 |                 193            8            5           1                  |
 |                 194            8            5           1                  |
 |                 195            8            5           1                  |
 |                 196            8            5           1                  |
 |                 197            8            5           1                  |
 |                 198            8            5           1                  |
 |                 199            8            5           1                  |
 |                 200            8            4           1                  |
 |                 201            8            4           1                  |
 |                 202            8            4           1                  |
 |                 203            8            4           1                  |
 |                 204            8            4           1                  |
 |                 205            8            4           1                  |
 |                 206            8            4           1                  |
 |                 207            8            4           1                  |
 |                 208            8            5           1                  |
 |                 209            8            5           1                  |
 |                 210            8            5           1                  |
 |                 211            8            5           1                  |
 |                 212            8            5           1                  |
 |                 213            8            5           1                  |
 |                 214            8            5           1                  |
 |                 215            8            5           1                  |
 |                 216            8            4           1                  |
 |                 217            8            4           1                  |
 |                 218            8            4           1                  |
 |                 219            8            4           1                  |
 |                 220            8            4           1                  |
 |                 221            8            4           1                  |
 |                 222            8            4           1                  |
 |                 223            8            4           1                  |
 |                 224            8            5           1                  |
 |                 225            8            5           1                  |
 |                 226            8            5           1                  |
 |                 227            8            5           1                  |
 |                 228            8            5           1                  |
 |                 229            8            5           1                  |
 |                 230            8            5           1                  |
 |                 231            8            5           1                  |
 |                 232            8            5           1                  |
 |                 233            8            5           1                  |
 |                 234            8            5           1                  |
 |                 235            8            5           1                  |
 |                 236            8            5           1                  |
 |                 237            8            5           1                  |
 |                 238            8            5           1                  |
 |                 239            8            5           1                  |
 |                 240            8            5           1                  |
 |                 241            8            5           1                  |
 |                 242            8            5           1                  |
 |                 243            8            5           1                  |
 |                 244            8            5           1                  |
 |                 245            8            5           1                  |
 |                 246            8            5           1                  |
 |                 247            8            5           1                  |
 |                 248            8            5           1                  |
 |                 249            8            5           1                  |
 |                 250            8            5           1                  |
 |                 251            8            5           1                  |
 |                 252            8            5           1                  |
 |                 253            8            5           1                  |
 |                 254            8            5           1                  |
 |                 255            8            5           1                  |
 |                 256            8            5           1                  |
 |                 257            8            5           1                  |
 |                 258            8            5           1                  |
 |                 259            8            5           1                  |
 |                 260            8            5           1                  |
 |                 261            8            5           1                  |
 |                 262            8            5           1                  |
 |                 263            8            5           1                  |
 |                 264            8            5           1                  |
 |                 265            8            5           1                  |
 |                 266            8            5           1                  |
 |                 267            8            5           1                  |
 |                 268            8            5           1                  |
 |                 269            8            5           1                  |
 |                 270            8            5           1                  |
 |                 271            8            5           1                  |
 |                 272            8            5           1                  |
 |                 273            8            5           1                  |
 |                 274            8            5           1                  |
 |                 275            8            5           1                  |
 |                 276            8            5           1                  |
 |                 277            8            5           1                  |
 |                 278            8            5           1                  |
 |                 279            8            5           1                  |
 |                 280            8            5           1                  |
 |                 281            8            5           1                  |
 |                 282            8            5           1                  |
 |                 283            8            5           1                  |
 |                 284            8            5           1                  |
 |                 285            8            5           1                  |
 |                 286            8            5           1                  |
 |                 287            8            5           1                  |
 |                 288            8            5           1                  |
 |                 289            8            5           1                  |
 |                 290            8            5           1                  |
 |                 291            8            5           1                  |
 |                 292            8            5           1                  |
 |                 293            8            5           1                  |
 |                 294            8            5           1                  |
 |                 295            8            5           1                  |
 |                 296            8            5           1                  |
 |                 297            8            5           1                  |
 |                 298            8            5           1                  |
 |                 299            8            5           1                  |
 |                 300            8            4           1                  |
 |                 301            8            4           1                  |
 |                 302            8            4           1                  |
 |                 303            8            4           1                  |
 |                 304            8            4           1                  |
 |                 305            8            4           1                  |
 |                 306            8            4           1                  |
 |                 307            8            4           1                  |
 |                 308            8            4           1                  |
 |                 309            8            4           1                  |
 |                 310            7            5           2                  |
 |                 311            7            5           2                  |
 |                 312            7            5           2                  |
 |                 313            7            5           2                  |
 |                 314            7            5           2                  |
 |                 315            7            5           2                  |
 |                 316            7            5           2                  |
 |                 317            7            5           2                  |
 |                 318            8            4           1                  |
 |                 319            8            4           1                  |
 |                 320            8            4           1                  |
 |                 321            8            4           1                  |
 |                 322            8            4           1                  |
 |                 323            8            4           1                  |
 |                 324            8            4           1                  |
 |                 325            8            4           1                  |
 |                 326            8            5           1                  |
 |                 327            8            5           1                  |
 |                 328            8            5           1                  |
 |                 329            8            5           1                  |
 |                 330            8            5           1                  |
 |                 331            8            5           1                  |
 |                 332            8            5           1                  |
 |                 333            8            5           1                  |
 |                 334            8            5           1                  |
 |                 335            8            5           1                  |
 |                 336            8            5           1                  |
 |                 337            8            5           1                  |
 |                 338            7            4           2                  |
 |                 339            7            4           2                  |
 |                 340            8            4           1                  |
 |                 341            8            4           1                  |
 |                 342            8            4           1                  |
 |                 343            8            4           1                  |
 +----------------------------------------------------------------------------+

                   Unitarised projection of Wannier functions                  
                   ------------------------------------------                  
   A_mn = <psi_m|g_n> --> S = A.A^+ --> U = S^-1/2.A
   In dis_project... done
   Using an inner window (linner = T)
   In dis_proj_froz... done

                   Extraction of optimally-connected subspace                  
                   ------------------------------------------                  
 +---------------------------------------------------------------------+<-- DIS
 |  Iter     Omega_I(i-1)      Omega_I(i)      Delta (frac.)    Time   |<-- DIS
 +---------------------------------------------------------------------+<-- DIS
       1      14.55602220      14.50838522       3.283E-03      0.00    <-- DIS
       2      14.51784080      14.49873680       1.318E-03      0.00    <-- DIS
       3      14.50474919      14.49292196       8.161E-04      0.01    <-- DIS
       4      14.49632553      14.48925641       4.879E-04      0.01    <-- DIS
       5      14.49095926      14.48685313       2.834E-04      0.02    <-- DIS
       6      14.48753948      14.48522627       1.597E-04      0.02    <-- DIS
       7      14.48534521      14.48409767       8.613E-05      0.03    <-- DIS
       8      14.48392247      14.48330047       4.295E-05      0.03    <-- DIS
       9      14.48298904      14.48273008       1.788E-05      0.03    <-- DIS
      10      14.48236970      14.48231828       3.550E-06      0.04    <-- DIS
      11      14.48195495      14.48201912      -4.431E-06      0.04    <-- DIS
[...]
 
      8    -0.850E-06     0.0007861786       14.8209955113       0.61  <-- CONV
        O_D=      0.0000000 O_OD=      0.3397967 O_TOT=     14.8209955 <-- SPRD
 Delta: O_D=  0.9261748E-20 O_OD= -0.8496722E-06 O_TOT= -0.8496722E-06 <-- DLTA
 ------------------------------------------------------------------------------
 Cycle:      9
  WF centre and spread    1  ( -0.000000, -0.000000, -0.000000 )     2.88063086
  WF centre and spread    2  ( -0.000000,  0.000000, -0.000000 )     3.26325392
  WF centre and spread    3  (  0.000000, -0.000000, -0.000000 )     3.26325392
  WF centre and spread    4  ( -0.000000, -0.000000,  0.000000 )     2.51159588
  WF centre and spread    5  ( -0.000000,  0.000000,  0.000000 )     2.90226056
  Sum of centres and spreads ( -0.000000, -0.000000, -0.000000 )    14.82099514
 
      9    -0.372E-06     0.0006355022       14.8209951392       0.62  <-- CONV
        O_D=      0.0000000 O_OD=      0.3397963 O_TOT=     14.8209951 <-- SPRD
 Delta: O_D= -0.3877103E-19 O_OD= -0.3720855E-06 O_TOT= -0.3720855E-06 <-- DLTA
 ------------------------------------------------------------------------------
 Cycle:     10
  WF centre and spread    1  ( -0.000000, -0.000000, -0.000000 )     2.88066827
  WF centre and spread    2  ( -0.000000,  0.000000, -0.000000 )     3.26325384
  WF centre and spread    3  (  0.000000, -0.000000, -0.000000 )     3.26325384
  WF centre and spread    4  ( -0.000000, -0.000000,  0.000000 )     2.51156154
  WF centre and spread    5  ( -0.000000,  0.000000,  0.000000 )     2.90225743
  Sum of centres and spreads ( -0.000000, -0.000000, -0.000000 )    14.82099492
 
     10    -0.222E-06     0.0004102416       14.8209949168       0.63  <-- CONV
        O_D=      0.0000000 O_OD=      0.3397961 O_TOT=     14.8209949 <-- SPRD
 Delta: O_D=  0.2865674E-19 O_OD= -0.2224230E-06 O_TOT= -0.2224230E-06 <-- DLTA
 ------------------------------------------------------------------------------
 Cycle:     11
  WF centre and spread    1  ( -0.000000, -0.000000, -0.000000 )     2.88069560
  WF centre and spread    2  ( -0.000000,  0.000000, -0.000000 )     3.26325381
  WF centre and spread    3  (  0.000000, -0.000000, -0.000000 )     3.26325381
  WF centre and spread    4  ( -0.000000, -0.000000,  0.000000 )     2.51154001
  WF centre and spread    5  ( -0.000000,  0.000000,  0.000000 )     2.90225157
  Sum of centres and spreads ( -0.000000, -0.000000, -0.000000 )    14.82099481
 
     11    -0.112E-06     0.0003479588       14.8209948052       0.64  <-- CONV
        O_D=      0.0000000 O_OD=      0.3397960 O_TOT=     14.8209948 <-- SPRD
 Delta: O_D= -0.3513628E-19 O_OD= -0.1115416E-06 O_TOT= -0.1115416E-06 <-- DLTA
 ------------------------------------------------------------------------------
 Cycle:     12
  WF centre and spread    1  ( -0.000000, -0.000000, -0.000000 )     2.88070528
  WF centre and spread    2  ( -0.000000,  0.000000, -0.000000 )     3.26325374
  WF centre and spread    3  (  0.000000, -0.000000, -0.000000 )     3.26325375
  WF centre and spread    4  ( -0.000000, -0.000000,  0.000000 )     2.51153363
  WF centre and spread    5  ( -0.000000,  0.000000,  0.000000 )     2.90224838
  Sum of centres and spreads ( -0.000000, -0.000000, -0.000000 )    14.82099478
 
     12    -0.268E-07     0.0001729480       14.8209947784       0.65  <-- CONV
        O_D=      0.0000000 O_OD=      0.3397960 O_TOT=     14.8209948 <-- SPRD
 Delta: O_D= -0.2732461E-20 O_OD= -0.2684979E-07 O_TOT= -0.2684979E-07 <-- DLTA
 ------------------------------------------------------------------------------
 Cycle:     13
  WF centre and spread    1  ( -0.000000, -0.000000, -0.000000 )     2.88070564
  WF centre and spread    2  ( -0.000000,  0.000000, -0.000000 )     3.26325380
  WF centre and spread    3  (  0.000000, -0.000000, -0.000000 )     3.26325380
  WF centre and spread    4  ( -0.000000, -0.000000,  0.000000 )     2.51153334
  WF centre and spread    5  ( -0.000000,  0.000000,  0.000000 )     2.90224819
  Sum of centres and spreads ( -0.000000, -0.000000, -0.000000 )    14.82099477
 
     13    -0.414E-08     0.0000856906       14.8209947743       0.66  <-- CONV
        O_D=      0.0000000 O_OD=      0.3397960 O_TOT=     14.8209948 <-- SPRD
 Delta: O_D= -0.2265085E-19 O_OD= -0.4136582E-08 O_TOT= -0.4136581E-08 <-- DLTA
 ------------------------------------------------------------------------------
 Cycle:     14
  WF centre and spread    1  ( -0.000000, -0.000000, -0.000000 )     2.88070639
  WF centre and spread    2  ( -0.000000,  0.000000, -0.000000 )     3.26325389
  WF centre and spread    3  (  0.000000, -0.000000, -0.000000 )     3.26325389
  WF centre and spread    4  ( -0.000000, -0.000000,  0.000000 )     2.51153273
  WF centre and spread    5  ( -0.000000,  0.000000,  0.000000 )     2.90224787
  Sum of centres and spreads ( -0.000000, -0.000000, -0.000000 )    14.82099477
 
     14    -0.148E-08     0.0000400499       14.8209947728       0.67  <-- CONV
        O_D=      0.0000000 O_OD=      0.3397960 O_TOT=     14.8209948 <-- SPRD
 Delta: O_D=  0.8531342E-21 O_OD= -0.1478683E-08 O_TOT= -0.1478682E-08 <-- DLTA
 ------------------------------------------------------------------------------
 Cycle:     15
  WF centre and spread    1  ( -0.000000, -0.000000, -0.000000 )     2.88070654
  WF centre and spread    2  ( -0.000000,  0.000000, -0.000000 )     3.26325390
  WF centre and spread    3  (  0.000000, -0.000000, -0.000000 )     3.26325390
  WF centre and spread    4  ( -0.000000, -0.000000,  0.000000 )     2.51153259
  WF centre and spread    5  ( -0.000000,  0.000000,  0.000000 )     2.90224784
  Sum of centres and spreads ( -0.000000, -0.000000, -0.000000 )    14.82099477
 
     15    -0.278E-09     0.0000266892       14.8209947725       0.68  <-- CONV
        O_D=      0.0000000 O_OD=      0.3397960 O_TOT=     14.8209948 <-- SPRD
 Delta: O_D= -0.1058378E-19 O_OD= -0.2777426E-09 O_TOT= -0.2777440E-09 <-- DLTA
 ------------------------------------------------------------------------------
 Cycle:     16
  WF centre and spread    1  ( -0.000000, -0.000000, -0.000000 )     2.88070672
  WF centre and spread    2  ( -0.000000,  0.000000, -0.000000 )     3.26325390
  WF centre and spread    3  (  0.000000, -0.000000, -0.000000 )     3.26325391
  WF centre and spread    4  ( -0.000000, -0.000000,  0.000000 )     2.51153238
  WF centre and spread    5  ( -0.000000,  0.000000,  0.000000 )     2.90224787
  Sum of centres and spreads ( -0.000000, -0.000000, -0.000000 )    14.82099477
 
     16    -0.129E-09     0.0000159577       14.8209947724       0.69  <-- CONV
        O_D=      0.0000000 O_OD=      0.3397960 O_TOT=     14.8209948 <-- SPRD
 Delta: O_D=  0.6056205E-20 O_OD= -0.1291332E-09 O_TOT= -0.1291323E-09 <-- DLTA
 ------------------------------------------------------------------------------
 Cycle:     17
  WF centre and spread    1  ( -0.000000, -0.000000, -0.000000 )     2.88070672
  WF centre and spread    2  ( -0.000000,  0.000000, -0.000000 )     3.26325390
  WF centre and spread    3  (  0.000000, -0.000000, -0.000000 )     3.26325391
  WF centre and spread    4  ( -0.000000, -0.000000,  0.000000 )     2.51153238
  WF centre and spread    5  ( -0.000000,  0.000000,  0.000000 )     2.90224787
  Sum of centres and spreads ( -0.000000, -0.000000, -0.000000 )    14.82099477
 
     17    -0.639E-12     0.0000160162       14.8209947724       0.69  <-- CONV
        O_D=      0.0000000 O_OD=      0.3397960 O_TOT=     14.8209948 <-- SPRD
 Delta: O_D= -0.3849502E-22 O_OD= -0.6388778E-12 O_TOT= -0.6394885E-12 <-- DLTA
 ------------------------------------------------------------------------------
 Cycle:     18
  WF centre and spread    1  ( -0.000000, -0.000000, -0.000000 )     2.88070685
  WF centre and spread    2  ( -0.000000,  0.000000, -0.000000 )     3.26325390
  WF centre and spread    3  (  0.000000, -0.000000, -0.000000 )     3.26325390
  WF centre and spread    4  ( -0.000000, -0.000000,  0.000000 )     2.51153219
  WF centre and spread    5  ( -0.000000,  0.000000,  0.000000 )     2.90224794
  Sum of centres and spreads ( -0.000000, -0.000000, -0.000000 )    14.82099477
 
     18    -0.123E-09     0.0000160015       14.8209947723       0.70  <-- CONV
        O_D=      0.0000000 O_OD=      0.3397960 O_TOT=     14.8209948 <-- SPRD
 Delta: O_D= -0.6186844E-20 O_OD= -0.1228838E-09 O_TOT= -0.1228830E-09 <-- DLTA
 ------------------------------------------------------------------------------
 Cycle:     19
  WF centre and spread    1  ( -0.000000, -0.000000, -0.000000 )     2.88070685
  WF centre and spread    2  ( -0.000000,  0.000000, -0.000000 )     3.26325390
  WF centre and spread    3  (  0.000000, -0.000000, -0.000000 )     3.26325390
  WF centre and spread    4  ( -0.000000, -0.000000,  0.000000 )     2.51153219
  WF centre and spread    5  ( -0.000000,  0.000000,  0.000000 )     2.90224794
  Sum of centres and spreads ( -0.000000, -0.000000, -0.000000 )    14.82099477
 
     19    -0.448E-12     0.0000083309       14.8209947722       0.71  <-- CONV
        O_D=      0.0000000 O_OD=      0.3397960 O_TOT=     14.8209948 <-- SPRD
 Delta: O_D= -0.1213963E-22 O_OD= -0.4471423E-12 O_TOT= -0.4476419E-12 <-- DLTA
 ------------------------------------------------------------------------------
 Cycle:     20
  WF centre and spread    1  ( -0.000000, -0.000000, -0.000000 )     2.88070685
  WF centre and spread    2  ( -0.000000,  0.000000, -0.000000 )     3.26325390
  WF centre and spread    3  (  0.000000, -0.000000, -0.000000 )     3.26325390
  WF centre and spread    4  ( -0.000000, -0.000000,  0.000000 )     2.51153218
  WF centre and spread    5  ( -0.000000,  0.000000,  0.000000 )     2.90224794
  Sum of centres and spreads ( -0.000000, -0.000000, -0.000000 )    14.82099477
 
     20    -0.886E-12     0.0000082916       14.8209947722       0.71  <-- CONV
        O_D=      0.0000000 O_OD=      0.3397960 O_TOT=     14.8209948 <-- SPRD
 Delta: O_D= -0.2372690E-22 O_OD= -0.8856249E-12 O_TOT= -0.8864021E-12 <-- DLTA
 ------------------------------------------------------------------------------
 Cycle:     21
  WF centre and spread    1  ( -0.000000, -0.000000, -0.000000 )     2.88070687
  WF centre and spread    2  ( -0.000000,  0.000000, -0.000000 )     3.26325390
  WF centre and spread    3  (  0.000000, -0.000000, -0.000000 )     3.26325390
  WF centre and spread    4  ( -0.000000, -0.000000,  0.000000 )     2.51153214
  WF centre and spread    5  ( -0.000000,  0.000000,  0.000000 )     2.90224798
  Sum of centres and spreads ( -0.000000, -0.000000, -0.000000 )    14.82099477
 
     21    -0.415E-10     0.0000082138       14.8209947722       0.72  <-- CONV
        O_D=      0.0000000 O_OD=      0.3397960 O_TOT=     14.8209948 <-- SPRD
 Delta: O_D= -0.5692595E-21 O_OD= -0.4146827E-10 O_TOT= -0.4146727E-10 <-- DLTA
 ------------------------------------------------------------------------------
 Cycle:     22
  WF centre and spread    1  ( -0.000000, -0.000000, -0.000000 )     2.88070687
  WF centre and spread    2  ( -0.000000,  0.000000, -0.000000 )     3.26325390
  WF centre and spread    3  (  0.000000, -0.000000, -0.000000 )     3.26325390
  WF centre and spread    4  ( -0.000000, -0.000000,  0.000000 )     2.51153213
  WF centre and spread    5  ( -0.000000,  0.000000,  0.000000 )     2.90224798
  Sum of centres and spreads ( -0.000000, -0.000000, -0.000000 )    14.82099477
 
     22    -0.238E-11     0.0000033955       14.8209947722       0.73  <-- CONV
        O_D=      0.0000000 O_OD=      0.3397960 O_TOT=     14.8209948 <-- SPRD
 Delta: O_D=  0.1310300E-22 O_OD= -0.2380651E-11 O_TOT= -0.2380318E-11 <-- DLTA
 ------------------------------------------------------------------------------
 Cycle:     23
  WF centre and spread    1  ( -0.000000, -0.000000, -0.000000 )     2.88070687
  WF centre and spread    2  ( -0.000000,  0.000000, -0.000000 )     3.26325390
  WF centre and spread    3  (  0.000000, -0.000000, -0.000000 )     3.26325390
  WF centre and spread    4  ( -0.000000, -0.000000,  0.000000 )     2.51153213
  WF centre and spread    5  ( -0.000000,  0.000000,  0.000000 )     2.90224798
  Sum of centres and spreads ( -0.000000, -0.000000, -0.000000 )    14.82099477
 
     23    -0.167E-12     0.0000030654       14.8209947722       0.74  <-- CONV
        O_D=      0.0000000 O_OD=      0.3397960 O_TOT=     14.8209948 <-- SPRD
 Delta: O_D= -0.7760248E-24 O_OD= -0.1668665E-12 O_TOT= -0.1669775E-12 <-- DLTA
 ------------------------------------------------------------------------------
 Cycle:     24
  WF centre and spread    1  ( -0.000000, -0.000000, -0.000000 )     2.88070688
  WF centre and spread    2  ( -0.000000,  0.000000, -0.000000 )     3.26325389
  WF centre and spread    3  (  0.000000, -0.000000, -0.000000 )     3.26325390
  WF centre and spread    4  ( -0.000000, -0.000000,  0.000000 )     2.51153211
  WF centre and spread    5  ( -0.000000,  0.000000,  0.000000 )     2.90224799
  Sum of centres and spreads ( -0.000000, -0.000000, -0.000000 )    14.82099477
 
     24    -0.383E-11     0.0000030438       14.8209947722       0.74  <-- CONV
        O_D=      0.0000000 O_OD=      0.3397960 O_TOT=     14.8209948 <-- SPRD
 Delta: O_D= -0.3668393E-22 O_OD= -0.3828105E-11 O_TOT= -0.3828049E-11 <-- DLTA
 ------------------------------------------------------------------------------
 Cycle:     25
  WF centre and spread    1  ( -0.000000, -0.000000, -0.000000 )     2.88070688
  WF centre and spread    2  ( -0.000000,  0.000000, -0.000000 )     3.26325389
  WF centre and spread    3  (  0.000000, -0.000000, -0.000000 )     3.26325390
  WF centre and spread    4  ( -0.000000, -0.000000,  0.000000 )     2.51153211
  WF centre and spread    5  ( -0.000000,  0.000000,  0.000000 )     2.90224799
  Sum of centres and spreads ( -0.000000, -0.000000, -0.000000 )    14.82099477
 
     25    -0.480E-13     0.0000025418       14.8209947722       0.75  <-- CONV
        O_D=      0.0000000 O_OD=      0.3397960 O_TOT=     14.8209948 <-- SPRD
 Delta: O_D= -0.7269099E-24 O_OD= -0.4735101E-13 O_TOT= -0.4796163E-13 <-- DLTA
 ------------------------------------------------------------------------------
 Cycle:     26
  WF centre and spread    1  ( -0.000000, -0.000000, -0.000000 )     2.88070688
  WF centre and spread    2  ( -0.000000,  0.000000, -0.000000 )     3.26325389
  WF centre and spread    3  (  0.000000, -0.000000, -0.000000 )     3.26325390
  WF centre and spread    4  ( -0.000000, -0.000000,  0.000000 )     2.51153211
  WF centre and spread    5  ( -0.000000,  0.000000,  0.000000 )     2.90224799
  Sum of centres and spreads ( -0.000000, -0.000000, -0.000000 )    14.82099477
 
     26    -0.799E-13     0.0000025373       14.8209947722       0.76  <-- CONV
        O_D=      0.0000000 O_OD=      0.3397960 O_TOT=     14.8209948 <-- SPRD
 Delta: O_D= -0.1425416E-23 O_OD= -0.8015810E-13 O_TOT= -0.7993606E-13 <-- DLTA
 ------------------------------------------------------------------------------
 Cycle:     27
  WF centre and spread    1  ( -0.000000, -0.000000, -0.000000 )     2.88070688
  WF centre and spread    2  ( -0.000000,  0.000000, -0.000000 )     3.26325389
  WF centre and spread    3  (  0.000000, -0.000000, -0.000000 )     3.26325390
  WF centre and spread    4  ( -0.000000, -0.000000,  0.000000 )     2.51153211
  WF centre and spread    5  ( -0.000000,  0.000000,  0.000000 )     2.90224799
  Sum of centres and spreads ( -0.000000, -0.000000, -0.000000 )    14.82099477
 
     27    -0.121E-12     0.0000025285       14.8209947722       0.76  <-- CONV
        O_D=      0.0000000 O_OD=      0.3397960 O_TOT=     14.8209948 <-- SPRD
 Delta: O_D= -0.2065369E-23 O_OD= -0.1212364E-12 O_TOT= -0.1207923E-12 <-- DLTA
 ------------------------------------------------------------------------------
 Cycle:     28
  WF centre and spread    1  ( -0.000000, -0.000000, -0.000000 )     2.88070688
  WF centre and spread    2  ( -0.000000,  0.000000, -0.000000 )     3.26325389
  WF centre and spread    3  (  0.000000, -0.000000, -0.000000 )     3.26325390
  WF centre and spread    4  ( -0.000000, -0.000000,  0.000000 )     2.51153211
  WF centre and spread    5  ( -0.000000,  0.000000,  0.000000 )     2.90224800
  Sum of centres and spreads ( -0.000000, -0.000000, -0.000000 )    14.82099477
 
     28    -0.163E-12     0.0000025154       14.8209947722       0.77  <-- CONV
        O_D=      0.0000000 O_OD=      0.3397960 O_TOT=     14.8209948 <-- SPRD
 Delta: O_D= -0.2619211E-23 O_OD= -0.1627032E-12 O_TOT= -0.1634248E-12 <-- DLTA
 ------------------------------------------------------------------------------
 Cycle:     29
  WF centre and spread    1  ( -0.000000, -0.000000, -0.000000 )     2.88070688
  WF centre and spread    2  ( -0.000000,  0.000000, -0.000000 )     3.26325389
  WF centre and spread    3  (  0.000000, -0.000000, -0.000000 )     3.26325390
  WF centre and spread    4  ( -0.000000, -0.000000,  0.000000 )     2.51153210
  WF centre and spread    5  ( -0.000000,  0.000000,  0.000000 )     2.90224800
  Sum of centres and spreads ( -0.000000, -0.000000, -0.000000 )    14.82099477
 
     29    -0.203E-12     0.0000024982       14.8209947722       0.77  <-- CONV
        O_D=      0.0000000 O_OD=      0.3397960 O_TOT=     14.8209948 <-- SPRD
 Delta: O_D= -0.3066143E-23 O_OD= -0.2018941E-12 O_TOT= -0.2025047E-12 <-- DLTA
 ------------------------------------------------------------------------------

             <<<     Delta < 1.000E-12  over  5 iterations     >>>
             <<< Wannierisation convergence criteria satisfied >>>

 Final State
  WF centre and spread    1  ( -0.000000, -0.000000, -0.000000 )     2.88070688
  WF centre and spread    2  ( -0.000000,  0.000000, -0.000000 )     3.26325389
  WF centre and spread    3  (  0.000000, -0.000000, -0.000000 )     3.26325390
  WF centre and spread    4  ( -0.000000, -0.000000,  0.000000 )     2.51153210
  WF centre and spread    5  ( -0.000000,  0.000000,  0.000000 )     2.90224800
  Sum of centres and spreads ( -0.000000, -0.000000, -0.000000 )    14.82099477
 
         Spreads (Ang^2)       Omega I      =    14.481198802
        ================       Omega D      =     0.000000000
                               Omega OD     =     0.339795970
    Final Spread (Ang^2)       Omega Total  =    14.820994772
 ------------------------------------------------------------------------------
 Time for wannierise            0.231 (sec)

 Writing checkpoint file sfo.chk... done

 *---------------------------------------------------------------------------*
 |                               PLOTTING                                    |
 *---------------------------------------------------------------------------*
 
 
 Calculating interpolated band-structure
 
 Time to calculate interpolated band structure       0.200 (sec)
 
 Time for plotting              0.293 (sec)
 Total Execution Time           1.309 (sec)

 *===========================================================================*
 |                             TIMING INFORMATION                            |
 *===========================================================================*
 |    Tag                                                Ncalls      Time (s)|
 |---------------------------------------------------------------------------|
 |kmesh: get                                        :         1         0.099|
 |overlap: allocate                                 :         1         0.000|
 |overlap: read                                     :         1         0.112|
 |dis: main                                         :         1         0.546|
 |wann: main                                        :         1         0.231|
 |plot: main                                        :         1         0.293|
 *---------------------------------------------------------------------------*
 
 All done: wannier90 exiting
