File written on 23Feb2024 at 10:25:25 

calc_only_A  :  F

begin real_lattice
  -1.9547442   1.9547456   6.2777153
   1.9547451  -1.9547447   6.2777153
   1.9547451   1.9547447  -6.2777153
end real_lattice

begin recip_lattice
   0.0000000   1.6071623   0.5004356
   1.6071623  -0.0000004   0.5004356
   1.6071623   1.6071619  -0.0000002
end recip_lattice

begin kpoints
   343
    0.00000000    0.00000000    0.00000000
    0.00000000    0.00000000    0.14285714
    0.00000000    0.00000000   -0.14285714
    0.14285714   -0.14285714    0.00000000
   -0.14285714    0.14285714    0.00000000
    0.00000000    0.00000000    0.28571429
    0.00000000    0.00000000   -0.28571429
    0.28571429   -0.28571429    0.00000000
   -0.28571429    0.28571429    0.00000000
    0.00000000    0.00000000    0.42857143
    0.00000000    0.00000000   -0.42857143
    0.42857143   -0.42857143    0.00000000
   -0.42857143    0.42857143    0.00000000
    0.00000000    0.14285714    0.00000000
    0.00000000   -0.14285714    0.00000000
    0.14285714    0.00000000   -0.14285714
   -0.14285714    0.00000000    0.14285714
    0.00000000   -0.14285714    0.14285714
    0.00000000    0.14285714   -0.14285714
   -0.14285714    0.00000000    0.00000000
    0.14285714    0.00000000    0.00000000
    0.00000000    0.14285714    0.14285714
    0.00000000   -0.14285714   -0.14285714
    0.14285714    0.00000000   -0.28571429
   -0.14285714    0.00000000    0.28571429
    0.14285714   -0.28571429    0.00000000
   -0.14285714    0.28571429    0.00000000
   -0.28571429    0.14285714    0.14285714
    0.28571429   -0.14285714   -0.14285714
    0.00000000   -0.14285714    0.28571429
    0.00000000    0.14285714   -0.28571429
   -0.14285714    0.00000000   -0.14285714
    0.14285714    0.00000000    0.14285714
   -0.14285714    0.28571429   -0.14285714
    0.14285714   -0.28571429    0.14285714
    0.28571429   -0.14285714    0.00000000
   -0.28571429    0.14285714    0.00000000
    0.00000000    0.14285714    0.28571429
    0.00000000   -0.14285714   -0.28571429
    0.14285714    0.00000000   -0.42857143
   -0.14285714    0.00000000    0.42857143
    0.28571429   -0.42857143    0.00000000
   -0.28571429    0.42857143    0.00000000
   -0.42857143    0.28571429    0.14285714
    0.42857143   -0.28571429   -0.14285714
    0.00000000   -0.14285714    0.42857143
    0.00000000    0.14285714   -0.42857143
   -0.14285714    0.00000000   -0.28571429
    0.14285714    0.00000000    0.28571429
   -0.28571429    0.42857143   -0.14285714
    0.28571429   -0.42857143    0.14285714
    0.42857143   -0.28571429    0.00000000
   -0.42857143    0.28571429    0.00000000
    0.00000000    0.14285714    0.42857143
    0.00000000   -0.14285714   -0.42857143
    0.14285714    0.00000000    0.42857143
   -0.14285714    0.00000000   -0.42857143
    0.42857143    0.42857143    0.00000000
   -0.42857143   -0.42857143    0.00000000
    0.42857143    0.42857143    0.14285714
   -0.42857143   -0.42857143   -0.14285714
    0.00000000    0.28571429    0.00000000
    0.00000000   -0.28571429    0.00000000
    0.28571429    0.00000000   -0.28571429
   -0.28571429    0.00000000    0.28571429
    0.00000000   -0.28571429    0.28571429
    0.00000000    0.28571429   -0.28571429
   -0.28571429    0.00000000    0.00000000
    0.28571429    0.00000000    0.00000000
    0.00000000    0.28571429    0.14285714
    0.00000000   -0.28571429   -0.14285714
    0.28571429    0.00000000   -0.42857143
   -0.28571429    0.00000000    0.42857143
    0.14285714   -0.42857143    0.00000000
   -0.14285714    0.42857143    0.00000000
   -0.42857143    0.14285714    0.28571429
    0.42857143   -0.14285714   -0.28571429
    0.00000000   -0.28571429    0.42857143
    0.00000000    0.28571429   -0.42857143
   -0.28571429    0.00000000   -0.14285714
    0.28571429    0.00000000    0.14285714
   -0.14285714    0.42857143   -0.28571429
    0.14285714   -0.42857143    0.28571429
    0.42857143   -0.14285714    0.00000000
   -0.42857143    0.14285714    0.00000000
    0.00000000    0.28571429    0.28571429
    0.00000000   -0.28571429   -0.28571429
    0.28571429    0.00000000    0.42857143
   -0.28571429    0.00000000   -0.42857143
    0.28571429    0.42857143    0.00000000
   -0.28571429   -0.42857143    0.00000000
    0.42857143    0.28571429    0.28571429
   -0.42857143   -0.28571429   -0.28571429
    0.00000000   -0.28571429   -0.42857143
    0.00000000    0.28571429    0.42857143
   -0.28571429    0.00000000   -0.28571429
    0.28571429    0.00000000    0.28571429
   -0.28571429   -0.42857143   -0.28571429
    0.28571429    0.42857143    0.28571429
   -0.42857143   -0.28571429    0.00000000
    0.42857143    0.28571429    0.00000000
    0.00000000    0.28571429   -0.14285714
    0.00000000   -0.28571429    0.14285714
    0.28571429    0.00000000   -0.14285714
   -0.28571429    0.00000000    0.14285714
   -0.14285714   -0.14285714    0.00000000
    0.14285714    0.14285714    0.00000000
   -0.14285714   -0.14285714    0.28571429
    0.14285714    0.14285714   -0.28571429
    0.00000000    0.42857143    0.00000000
    0.00000000   -0.42857143    0.00000000
    0.42857143    0.00000000   -0.42857143
   -0.42857143    0.00000000    0.42857143
    0.00000000   -0.42857143    0.42857143
    0.00000000    0.42857143   -0.42857143
   -0.42857143    0.00000000    0.00000000
    0.42857143    0.00000000    0.00000000
    0.00000000    0.42857143    0.14285714
    0.00000000   -0.42857143   -0.14285714
    0.42857143    0.00000000    0.42857143
   -0.42857143    0.00000000   -0.42857143
    0.14285714    0.42857143    0.00000000
   -0.14285714   -0.42857143    0.00000000
    0.42857143    0.14285714    0.42857143
   -0.42857143   -0.14285714   -0.42857143
    0.00000000   -0.42857143   -0.42857143
    0.00000000    0.42857143    0.42857143
   -0.42857143    0.00000000   -0.14285714
    0.42857143    0.00000000    0.14285714
   -0.14285714   -0.42857143   -0.42857143
    0.14285714    0.42857143    0.42857143
   -0.42857143   -0.14285714    0.00000000
    0.42857143    0.14285714    0.00000000
    0.00000000    0.42857143    0.28571429
    0.00000000   -0.42857143   -0.28571429
    0.42857143    0.00000000    0.28571429
   -0.42857143    0.00000000   -0.28571429
    0.28571429    0.28571429    0.00000000
   -0.28571429   -0.28571429    0.00000000
    0.28571429    0.28571429    0.42857143
   -0.28571429   -0.28571429   -0.42857143
    0.00000000    0.42857143   -0.28571429
    0.00000000   -0.42857143    0.28571429
    0.42857143    0.00000000   -0.14285714
   -0.42857143    0.00000000    0.14285714
   -0.28571429   -0.14285714    0.00000000
    0.28571429    0.14285714    0.00000000
   -0.14285714   -0.28571429    0.42857143
    0.14285714    0.28571429   -0.42857143
    0.00000000   -0.42857143    0.14285714
    0.00000000    0.42857143   -0.14285714
   -0.42857143    0.00000000    0.28571429
    0.42857143    0.00000000   -0.28571429
    0.28571429    0.14285714   -0.42857143
   -0.28571429   -0.14285714    0.42857143
    0.14285714    0.28571429    0.00000000
   -0.14285714   -0.28571429    0.00000000
    0.14285714    0.14285714    0.14285714
   -0.14285714   -0.14285714   -0.14285714
    0.14285714    0.14285714   -0.42857143
   -0.14285714   -0.14285714    0.42857143
    0.14285714   -0.42857143    0.14285714
   -0.14285714    0.42857143   -0.14285714
   -0.42857143    0.14285714    0.14285714
    0.42857143   -0.14285714   -0.14285714
    0.14285714    0.14285714    0.28571429
   -0.14285714   -0.14285714   -0.28571429
    0.14285714    0.14285714    0.42857143
   -0.14285714   -0.14285714   -0.42857143
    0.28571429    0.42857143    0.14285714
   -0.28571429   -0.42857143   -0.14285714
    0.42857143    0.28571429    0.14285714
   -0.42857143   -0.28571429   -0.14285714
    0.14285714    0.14285714   -0.14285714
   -0.14285714   -0.14285714    0.14285714
    0.14285714    0.28571429    0.14285714
   -0.14285714   -0.28571429   -0.14285714
    0.28571429    0.14285714    0.42857143
   -0.28571429   -0.14285714   -0.42857143
    0.14285714    0.42857143    0.14285714
   -0.14285714   -0.42857143   -0.14285714
    0.42857143    0.14285714    0.28571429
   -0.42857143   -0.14285714   -0.28571429
   -0.14285714   -0.28571429   -0.42857143
    0.14285714    0.28571429    0.42857143
   -0.28571429   -0.14285714   -0.14285714
    0.28571429    0.14285714    0.14285714
   -0.14285714   -0.42857143   -0.28571429
    0.14285714    0.42857143    0.28571429
   -0.42857143   -0.14285714   -0.14285714
    0.42857143    0.14285714    0.14285714
    0.14285714    0.28571429    0.28571429
   -0.14285714   -0.28571429   -0.28571429
    0.28571429    0.14285714    0.28571429
   -0.28571429   -0.14285714   -0.28571429
    0.28571429    0.28571429    0.14285714
   -0.28571429   -0.28571429   -0.14285714
    0.28571429    0.28571429    0.28571429
   -0.28571429   -0.28571429   -0.28571429
    0.14285714    0.28571429   -0.28571429
   -0.14285714   -0.28571429    0.28571429
    0.28571429    0.14285714   -0.14285714
   -0.28571429   -0.14285714    0.14285714
   -0.14285714   -0.28571429    0.14285714
    0.14285714    0.28571429   -0.14285714
   -0.28571429   -0.14285714    0.28571429
    0.28571429    0.14285714   -0.28571429
    0.14285714    0.42857143   -0.42857143
   -0.14285714   -0.42857143    0.42857143
    0.42857143    0.14285714   -0.14285714
   -0.42857143   -0.14285714    0.14285714
   -0.14285714   -0.42857143    0.14285714
    0.14285714    0.42857143   -0.14285714
   -0.42857143   -0.14285714    0.42857143
    0.42857143    0.14285714   -0.42857143
    0.14285714    0.42857143   -0.28571429
   -0.14285714   -0.42857143    0.28571429
    0.42857143    0.14285714   -0.28571429
   -0.42857143   -0.14285714    0.28571429
   -0.28571429   -0.28571429    0.14285714
    0.28571429    0.28571429   -0.14285714
   -0.28571429   -0.28571429    0.42857143
    0.28571429    0.28571429   -0.42857143
    0.14285714   -0.42857143    0.42857143
   -0.14285714    0.42857143   -0.42857143
   -0.42857143    0.14285714   -0.14285714
    0.42857143   -0.14285714    0.14285714
   -0.14285714    0.42857143    0.14285714
    0.14285714   -0.42857143   -0.14285714
    0.42857143   -0.14285714   -0.42857143
   -0.42857143    0.14285714    0.42857143
    0.14285714   -0.42857143   -0.42857143
   -0.14285714    0.42857143    0.42857143
   -0.42857143    0.14285714   -0.28571429
    0.42857143   -0.14285714    0.28571429
   -0.42857143   -0.28571429    0.14285714
    0.42857143    0.28571429   -0.14285714
   -0.28571429   -0.42857143   -0.42857143
    0.28571429    0.42857143    0.42857143
   -0.14285714    0.42857143    0.28571429
    0.14285714   -0.42857143   -0.28571429
    0.42857143   -0.14285714    0.42857143
   -0.42857143    0.14285714   -0.42857143
    0.42857143    0.28571429    0.42857143
   -0.42857143   -0.28571429   -0.42857143
    0.28571429    0.42857143   -0.14285714
   -0.28571429   -0.42857143    0.14285714
    0.14285714   -0.28571429    0.28571429
   -0.14285714    0.28571429   -0.28571429
   -0.28571429    0.14285714   -0.14285714
    0.28571429   -0.14285714    0.14285714
   -0.14285714    0.28571429    0.14285714
    0.14285714   -0.28571429   -0.14285714
    0.28571429   -0.14285714   -0.28571429
   -0.28571429    0.14285714    0.28571429
    0.14285714   -0.28571429    0.42857143
   -0.14285714    0.28571429   -0.42857143
   -0.28571429    0.14285714   -0.28571429
    0.28571429   -0.14285714    0.28571429
    0.42857143   -0.28571429    0.14285714
   -0.42857143    0.28571429   -0.14285714
   -0.28571429    0.42857143   -0.28571429
    0.28571429   -0.42857143    0.28571429
   -0.14285714    0.28571429    0.28571429
    0.14285714   -0.28571429   -0.28571429
    0.28571429   -0.14285714   -0.42857143
   -0.28571429    0.14285714    0.42857143
   -0.42857143    0.28571429    0.28571429
    0.42857143   -0.28571429   -0.28571429
    0.28571429   -0.42857143   -0.14285714
   -0.28571429    0.42857143    0.14285714
    0.14285714   -0.28571429   -0.42857143
   -0.14285714    0.28571429    0.42857143
   -0.28571429    0.14285714   -0.42857143
    0.28571429   -0.14285714    0.42857143
   -0.42857143   -0.42857143    0.14285714
    0.42857143    0.42857143   -0.14285714
   -0.42857143   -0.42857143   -0.28571429
    0.42857143    0.42857143    0.28571429
    0.14285714   -0.14285714    0.14285714
   -0.14285714    0.14285714   -0.14285714
   -0.14285714    0.14285714    0.14285714
    0.14285714   -0.14285714   -0.14285714
    0.14285714   -0.14285714    0.28571429
   -0.14285714    0.14285714   -0.28571429
    0.28571429   -0.28571429    0.14285714
   -0.28571429    0.28571429   -0.14285714
   -0.14285714    0.14285714    0.28571429
    0.14285714   -0.14285714   -0.28571429
   -0.28571429    0.28571429    0.14285714
    0.28571429   -0.28571429   -0.14285714
    0.14285714   -0.14285714    0.42857143
   -0.14285714    0.14285714   -0.42857143
    0.42857143   -0.42857143    0.14285714
   -0.42857143    0.42857143   -0.14285714
   -0.14285714    0.14285714    0.42857143
    0.14285714   -0.14285714   -0.42857143
   -0.42857143    0.42857143    0.14285714
    0.42857143   -0.42857143   -0.14285714
    0.28571429    0.28571429   -0.28571429
   -0.28571429   -0.28571429    0.28571429
    0.28571429    0.42857143   -0.42857143
   -0.28571429   -0.42857143    0.42857143
    0.42857143    0.28571429   -0.28571429
   -0.42857143   -0.28571429    0.28571429
   -0.28571429   -0.42857143    0.28571429
    0.28571429    0.42857143   -0.28571429
   -0.42857143   -0.28571429    0.42857143
    0.42857143    0.28571429   -0.42857143
    0.28571429   -0.42857143    0.42857143
   -0.28571429    0.42857143   -0.42857143
   -0.42857143    0.28571429   -0.28571429
    0.42857143   -0.28571429    0.28571429
   -0.28571429    0.42857143    0.28571429
    0.28571429   -0.42857143   -0.28571429
    0.42857143   -0.28571429   -0.42857143
   -0.42857143    0.28571429    0.42857143
    0.28571429   -0.42857143   -0.42857143
   -0.28571429    0.42857143    0.42857143
   -0.42857143    0.28571429   -0.42857143
    0.42857143   -0.28571429    0.42857143
   -0.42857143   -0.42857143    0.28571429
    0.42857143    0.42857143   -0.28571429
   -0.42857143   -0.42857143   -0.42857143
    0.42857143    0.42857143    0.42857143
    0.28571429   -0.28571429    0.28571429
   -0.28571429    0.28571429   -0.28571429
   -0.28571429    0.28571429    0.28571429
    0.28571429   -0.28571429   -0.28571429
    0.28571429   -0.28571429    0.42857143
   -0.28571429    0.28571429   -0.42857143
    0.42857143   -0.42857143    0.28571429
   -0.42857143    0.42857143   -0.28571429
   -0.28571429    0.28571429    0.42857143
    0.28571429   -0.28571429   -0.42857143
   -0.42857143    0.42857143    0.28571429
    0.42857143   -0.42857143   -0.28571429
    0.42857143    0.42857143   -0.42857143
   -0.42857143   -0.42857143    0.42857143
    0.42857143   -0.42857143    0.42857143
   -0.42857143    0.42857143   -0.42857143
   -0.42857143    0.42857143    0.42857143
    0.42857143   -0.42857143   -0.42857143
end kpoints

begin projections
     5
   0.00000    0.00000    0.00000     2  1  1
    0.0000000  0.0000000  1.0000000   1.0000000  0.0000000  0.0000000    1.00
   0.00000    0.00000    0.00000     2  2  1
    0.0000000  0.0000000  1.0000000   1.0000000  0.0000000  0.0000000    1.00
   0.00000    0.00000    0.00000     2  3  1
    0.0000000  0.0000000  1.0000000   1.0000000  0.0000000  0.0000000    1.00
   0.00000    0.00000    0.00000     2  4  1
    0.0000000  0.0000000  1.0000000   1.0000000  0.0000000  0.0000000    1.00
   0.00000    0.00000    0.00000     2  5  1
    0.0000000  0.0000000  1.0000000   1.0000000  0.0000000  0.0000000    1.00
end projections

begin nnkpts
  10
     1   174      0   0   0
     1   175      0   0   0
     1    14      0   0   0
     1    15      0   0   0
     1    16      0   0   0
     1    17      0   0   0
     1    18      0   0   0
     1    19      0   0   0
     1    20      0   0   0
     1    21      0   0   0
     2   107      0   0   0
     2   108      0   0   0
     2    14      0   0   0
     2    17      0   0   0
     2    18      0   0   0
     2    21      0   0   0
     2    22      0   0   0
     2    25      0   0   0
     2    30      0   0   0
     2    33      0   0   0
     3   106      0   0   0
     3   109      0   0   0
     3    15      0   0   0
     3    16      0   0   0
     3    19      0   0   0
     3    20      0   0   0
     3    23      0   0   0
     3    24      0   0   0
     3    31      0   0   0
     3    32      0   0   0
     4   103      0   0   0
     4   104      0   0   0
     4    15      0   0   0
     4    16      0   0   0
     4    18      0   0   0
     4    21      0   0   0
     4    26      0   0   0
     4    29      0   0   0
     4    35      0   0   0
     4    36      0   0   0
     5   102      0   0   0
     5   105      0   0   0
     5    14      0   0   0
     5    17      0   0   0
     5    19      0   0   0
     5    20      0   0   0
     5    27      0   0   0
     5    28      0   0   0
     5    34      0   0   0
     5    37      0   0   0
     6   158      0   0   0
     6   161      0   0   0
     6    22      0   0   0
     6    25      0   0   0
     6    30      0   0   0
     6    33      0   0   0
     6    38      0   0   0
     6    41      0   0   0
     6    46      0   0   0
     6    49      0   0   0
     7   159      0   0   0
     7   160      0   0   0
     7    23      0   0   0
     7    24      0   0   0
     7    31      0   0   0
     7    32      0   0   0
     7    39      0   0   0
     7    40      0   0   0
     7    47      0   0   0
     7    48      0   0   0
     8   162      0   0   0
     8   165      0   0   0
     8    26      0   0   0
     8    29      0   0   0
     8    35      0   0   0
     8    36      0   0   0
     8    42      0   0   0
     8    45      0   0   0
     8    51      0   0   0
     8    52      0   0   0
     9   163      0   0   0
     9   164      0   0   0
     9    27      0   0   0
     9    28      0   0   0
     9    34      0   0   0
     9    37      0   0   0
     9    43      0   0   0
     9    44      0   0   0
     9    50      0   0   0
     9    53      0   0   0
    10   166      0   0   0
    10   169      0   0   1
    10    38      0   0   0
    10    41      0   0   0
    10    46      0   0   0
    10    49      0   0   0
    10    54      0   0   0
    10    56      0   0   0
    10    55      0   0   1
    10    57      0   0   1
    11   167      0   0   0
    11   168      0   0  -1
    11    39      0   0   0
    11    40      0   0   0
    11    47      0   0   0
    11    48      0   0   0
    11    55      0   0   0
    11    57      0   0   0
    11    54      0   0  -1
    11    56      0   0  -1
    12   173      1   0   0
    12   170      0  -1   0
    12    42      0   0   0
    12    45      0   0   0
    12    51      0   0   0
    12    52      0   0   0
    12    59      1   0   0
    12    61      1   0   0
    12    58      0  -1   0
    12    60      0  -1   0
    13   171      0   1   0
    13   172     -1   0   0
    13    43      0   0   0
    13    44      0   0   0
    13    50      0   0   0
    13    53      0   0   0
    13    59      0   1   0
    13    61      0   1   0
    13    58     -1   0   0
    13    60     -1   0   0
    14    17      0   0   0
    14   205      0   0   0
    14     1      0   0   0
    14     2      0   0   0
    14     5      0   0   0
    14    62      0   0   0
    14   102      0   0   0
    14   107      0   0   0
    14   174      0   0   0
    14   282      0   0   0
    15    16      0   0   0
    15   204      0   0   0
    15     1      0   0   0
    15     3      0   0   0
    15     4      0   0   0
    15    63      0   0   0
    15   103      0   0   0
    15   106      0   0   0
    15   175      0   0   0
    15   283      0   0   0
    16    15      0   0   0
    16   207      0   0   0
    16     1      0   0   0
    16     3      0   0   0
    16     4      0   0   0
    16    64      0   0   0
    16   104      0   0   0
    16   109      0   0   0
    16   174      0   0   0
    16   283      0   0   0
    17    14      0   0   0
    17   206      0   0   0
    17     1      0   0   0
    17     2      0   0   0
    17     5      0   0   0
    17    65      0   0   0
    17   105      0   0   0
    17   108      0   0   0
    17   175      0   0   0
    17   282      0   0   0
    18    21      0   0   0
    18   201      0   0   0
    18     1      0   0   0
    18     2      0   0   0
    18     4      0   0   0
    18    66      0   0   0
    18   103      0   0   0
    18   108      0   0   0
    18   175      0   0   0
    18   280      0   0   0
    19    20      0   0   0
    19   200      0   0   0
    19     1      0   0   0
    19     3      0   0   0
    19     5      0   0   0
    19    67      0   0   0
    19   102      0   0   0
    19   109      0   0   0
    19   174      0   0   0
    19   281      0   0   0
    20    19      0   0   0
    20   203      0   0   0
    20     1      0   0   0
    20     3      0   0   0
    20     5      0   0   0
    20    68      0   0   0
    20   105      0   0   0
    20   106      0   0   0
    20   175      0   0   0
    20   281      0   0   0
    21    18      0   0   0
    21   202      0   0   0
    21     1      0   0   0
    21     2      0   0   0
    21     4      0   0   0
    21    69      0   0   0
    21   104      0   0   0
    21   107      0   0   0
    21   174      0   0   0
    21   280      0   0   0
    22    25      0   0   0
    22   156      0   0   0
    22     2      0   0   0
    22     6      0   0   0
    22    62      0   0   0
    22    70      0   0   0
    22   107      0   0   0
    22   158      0   0   0
    22   282      0   0   0
    22   288      0   0   0
    23    24      0   0   0
    23   157      0   0   0
    23     3      0   0   0
    23     7      0   0   0
    23    63      0   0   0
    23    71      0   0   0
    23   106      0   0   0
    23   159      0   0   0
    23   283      0   0   0
    23   289      0   0   0
    24    23      0   0   0
    24   154      0   0   0
    24     3      0   0   0
    24     7      0   0   0
    24    64      0   0   0
    24    72      0   0   0
    24   109      0   0   0
    24   160      0   0   0
    24   283      0   0   0
    24   289      0   0   0
    25    22      0   0   0
    25   155      0   0   0
    25     2      0   0   0
    25     6      0   0   0
    25    65      0   0   0
    25    73      0   0   0
    25   108      0   0   0
    25   161      0   0   0
    25   282      0   0   0
    25   288      0   0   0
    26    29      0   0   0
    26   150      0   0   0
    26     4      0   0   0
    26     8      0   0   0
    26    63      0   0   0
    26    74      0   0   0
    26   103      0   0   0
    26   162      0   0   0
    26   283      0   0   0
    26   291      0   0   0
    27    28      0   0   0
    27   151      0   0   0
    27     5      0   0   0
    27     9      0   0   0
    27    62      0   0   0
    27    75      0   0   0
    27   102      0   0   0
    27   163      0   0   0
    27   282      0   0   0
    27   290      0   0   0
    28    27      0   0   0
    28   152      0   0   0
    28     5      0   0   0
    28     9      0   0   0
    28    65      0   0   0
    28    76      0   0   0
    28   105      0   0   0
    28   164      0   0   0
    28   282      0   0   0
    28   290      0   0   0
    29    26      0   0   0
    29   153      0   0   0
    29     4      0   0   0
    29     8      0   0   0
    29    64      0   0   0
    29    77      0   0   0
    29   104      0   0   0
    29   165      0   0   0
    29   283      0   0   0
    29   291      0   0   0
    30    33      0   0   0
    30   148      0   0   0
    30     2      0   0   0
    30     6      0   0   0
    30    66      0   0   0
    30    78      0   0   0
    30   108      0   0   0
    30   161      0   0   0
    30   280      0   0   0
    30   284      0   0   0
    31    32      0   0   0
    31   149      0   0   0
    31     3      0   0   0
    31     7      0   0   0
    31    67      0   0   0
    31    79      0   0   0
    31   109      0   0   0
    31   160      0   0   0
    31   281      0   0   0
    31   285      0   0   0
    32    31      0   0   0
    32   146      0   0   0
    32     3      0   0   0
    32     7      0   0   0
    32    68      0   0   0
    32    80      0   0   0
    32   106      0   0   0
    32   159      0   0   0
    32   281      0   0   0
    32   285      0   0   0
    33    30      0   0   0
    33   147      0   0   0
    33     2      0   0   0
    33     6      0   0   0
    33    69      0   0   0
    33    81      0   0   0
    33   107      0   0   0
    33   158      0   0   0
    33   280      0   0   0
    33   284      0   0   0
    34    37      0   0   0
    34   142      0   0   0
    34     5      0   0   0
    34     9      0   0   0
    34    67      0   0   0
    34    82      0   0   0
    34   102      0   0   0
    34   163      0   0   0
    34   281      0   0   0
    34   287      0   0   0
    35    36      0   0   0
    35   143      0   0   0
    35     4      0   0   0
    35     8      0   0   0
    35    66      0   0   0
    35    83      0   0   0
    35   103      0   0   0
    35   162      0   0   0
    35   280      0   0   0
    35   286      0   0   0
    36    35      0   0   0
    36   144      0   0   0
    36     4      0   0   0
    36     8      0   0   0
    36    69      0   0   0
    36    84      0   0   0
    36   104      0   0   0
    36   165      0   0   0
    36   280      0   0   0
    36   286      0   0   0
    37    34      0   0   0
    37   145      0   0   0
    37     5      0   0   0
    37     9      0   0   0
    37    68      0   0   0
    37    85      0   0   0
    37   105      0   0   0
    37   164      0   0   0
    37   281      0   0   0
    37   287      0   0   0
    38    41      0   0   0
    38   176      0   0   0
    38     6      0   0   0
    38    10      0   0   0
    38    70      0   0   0
    38    86      0   0   0
    38   158      0   0   0
    38   166      0   0   0
    38   288      0   0   0
    38   296      0   0   0
    39    40      0   0   0
    39   177      0   0   0
    39     7      0   0   0
    39    11      0   0   0
    39    71      0   0   0
    39    87      0   0   0
    39   159      0   0   0
    39   167      0   0   0
    39   289      0   0   0
    39   297      0   0   0
    40    39      0   0   0
    40   178      0   0  -1
    40     7      0   0   0
    40    11      0   0   0
    40    72      0   0   0
    40   160      0   0   0
    40   289      0   0   0
    40   297      0   0   0
    40    88      0   0  -1
    40   168      0   0  -1
    41    38      0   0   0
    41   179      0   0   1
    41     6      0   0   0
    41    10      0   0   0
    41    73      0   0   0
    41   161      0   0   0
    41   288      0   0   0
    41   296      0   0   0
    41    89      0   0   1
    41   169      0   0   1
    42    45      0   0   0
    42   180      0  -1   0
    42     8      0   0   0
    42    12      0   0   0
    42    74      0   0   0
    42   162      0   0   0
    42   291      0   0   0
    42   299      0   0   0
    42    90      0  -1   0
    42   170      0  -1   0
    43    44      0   0   0
    43   181      0   1   0
    43     9      0   0   0
    43    13      0   0   0
    43    75      0   0   0
    43   163      0   0   0
    43   290      0   0   0
    43   298      0   0   0
    43    91      0   1   0
    43   171      0   1   0
    44    43      0   0   0
    44   182     -1   0   0
    44     9      0   0   0
    44    13      0   0   0
    44    76      0   0   0
    44   164      0   0   0
    44   290      0   0   0
    44   298      0   0   0
    44    92     -1   0   0
    44   172     -1   0   0
    45    42      0   0   0
    45   183      1   0   0
    45     8      0   0   0
    45    12      0   0   0
    45    77      0   0   0
    45   165      0   0   0
    45   291      0   0   0
    45   299      0   0   0
    45    93      1   0   0
    45   173      1   0   0
    46    49      0   0   0
    46   184      0   0   1
    46     6      0   0   0
    46    10      0   0   0
    46    78      0   0   0
    46   161      0   0   0
    46   284      0   0   0
    46   292      0   0   0
    46    94      0   0   1
    46   169      0   0   1
    47    48      0   0   0
    47   185      0   0  -1
    47     7      0   0   0
    47    11      0   0   0
    47    79      0   0   0
    47   160      0   0   0
    47   285      0   0   0
    47   293      0   0   0
    47    95      0   0  -1
    47   168      0   0  -1
    48    47      0   0   0
    48   186      0   0   0
    48     7      0   0   0
    48    11      0   0   0
    48    80      0   0   0
    48    96      0   0   0
    48   159      0   0   0
    48   167      0   0   0
    48   285      0   0   0
    48   293      0   0   0
    49    46      0   0   0
    49   187      0   0   0
    49     6      0   0   0
    49    10      0   0   0
    49    81      0   0   0
    49    97      0   0   0
    49   158      0   0   0
    49   166      0   0   0
    49   284      0   0   0
    49   292      0   0   0
    50    53      0   0   0
    50   188      0   1   0
    50     9      0   0   0
    50    13      0   0   0
    50    82      0   0   0
    50   163      0   0   0
    50   287      0   0   0
    50   295      0   0   0
    50    98      0   1   0
    50   171      0   1   0
    51    52      0   0   0
    51   189      0  -1   0
    51     8      0   0   0
    51    12      0   0   0
    51    83      0   0   0
    51   162      0   0   0
    51   286      0   0   0
    51   294      0   0   0
    51    99      0  -1   0
    51   170      0  -1   0
    52    51      0   0   0
    52   190      1   0   0
    52     8      0   0   0
    52    12      0   0   0
    52    84      0   0   0
    52   165      0   0   0
    52   286      0   0   0
    52   294      0   0   0
    52   100      1   0   0
    52   173      1   0   0
    53    50      0   0   0
    53   191     -1   0   0
    53     9      0   0   0
    53    13      0   0   0
    53    85      0   0   0
    53   164      0   0   0
    53   287      0   0   0
    53   295      0   0   0
    53   101     -1   0   0
    53   172     -1   0   0
    54   192      0   0   0
    54    57      0   0   1
    54    10      0   0   0
    54    86      0   0   0
    54    95      0   0   0
    54   166      0   0   0
    54   168      0   0   0
    54   296      0   0   0
    54    11      0   0   1
    54   293      0   0   1
    55   193      0   0   0
    55    56      0   0  -1
    55    11      0   0   0
    55    87      0   0   0
    55    94      0   0   0
    55   167      0   0   0
    55   169      0   0   0
    55   297      0   0   0
    55    10      0   0  -1
    55   292      0   0  -1
    56   194      0   0   0
    56    55      0   0   1
    56    10      0   0   0
    56    88      0   0   0
    56    97      0   0   0
    56   166      0   0   0
    56   168      0   0   0
    56   292      0   0   0
    56    11      0   0   1
    56   297      0   0   1
    57   195      0   0   0
    57    54      0   0  -1
    57    11      0   0   0
    57    89      0   0   0
    57    96      0   0   0
    57   167      0   0   0
    57   169      0   0   0
    57   293      0   0   0
    57    10      0   0  -1
    57   296      0   0  -1
    58   196      0   0   0
    58    61      1   1   0
    58    90      0   0   0
    58   101      0   0   0
    58   170      0   0   0
    58   172      0   0   0
    58    13      1   0   0
    58   295      1   0   0
    58    12      0   1   0
    58   299      0   1   0
    59   197      0   0   0
    59    60     -1  -1   0
    59    91      0   0   0
    59   100      0   0   0
    59   171      0   0   0
    59   173      0   0   0
    59    13      0  -1   0
    59   298      0  -1   0
    59    12     -1   0   0
    59   294     -1   0   0
    60   198      0   0   0
    60    59      1   1   0
    60    92      0   0   0
    60    99      0   0   0
    60   170      0   0   0
    60   172      0   0   0
    60    13      1   0   0
    60   298      1   0   0
    60    12      0   1   0
    60   294      0   1   0
    61   199      0   0   0
    61    58     -1  -1   0
    61    93      0   0   0
    61    98      0   0   0
    61   171      0   0   0
    61   173      0   0   0
    61    13      0  -1   0
    61   295      0  -1   0
    61    12     -1   0   0
    61   299     -1   0   0
    62   213      0   0   0
    62   282      0   0   0
    62    14      0   0   0
    62    22      0   0   0
    62    27      0   0   0
    62   110      0   0   0
    62   151      0   0   0
    62   156      0   0   0
    62   205      0   0   0
    62   252      0   0   0
    63   212      0   0   0
    63   283      0   0   0
    63    15      0   0   0
    63    23      0   0   0
    63    26      0   0   0
    63   111      0   0   0
    63   150      0   0   0
    63   157      0   0   0
    63   204      0   0   0
    63   253      0   0   0
    64   215      0   0   0
    64   283      0   0   0
    64    16      0   0   0
    64    24      0   0   0
    64    29      0   0   0
    64   112      0   0   0
    64   153      0   0   0
    64   154      0   0   0
    64   207      0   0   0
    64   254      0   0   0
    65   214      0   0   0
    65   282      0   0   0
    65    17      0   0   0
    65    25      0   0   0
    65    28      0   0   0
    65   113      0   0   0
    65   152      0   0   0
    65   155      0   0   0
    65   206      0   0   0
    65   255      0   0   0
    66   209      0   0   0
    66   280      0   0   0
    66    18      0   0   0
    66    30      0   0   0
    66    35      0   0   0
    66   114      0   0   0
    66   143      0   0   0
    66   148      0   0   0
    66   201      0   0   0
    66   248      0   0   0
    67   208      0   0   0
    67   281      0   0   0
    67    19      0   0   0
    67    31      0   0   0
    67    34      0   0   0
    67   115      0   0   0
    67   142      0   0   0
    67   149      0   0   0
    67   200      0   0   0
    67   249      0   0   0
    68   211      0   0   0
    68   281      0   0   0
    68    20      0   0   0
    68    32      0   0   0
    68    37      0   0   0
    68   116      0   0   0
    68   145      0   0   0
    68   146      0   0   0
    68   203      0   0   0
    68   250      0   0   0
    69   210      0   0   0
    69   280      0   0   0
    69    21      0   0   0
    69    33      0   0   0
    69    36      0   0   0
    69   117      0   0   0
    69   144      0   0   0
    69   147      0   0   0
    69   202      0   0   0
    69   251      0   0   0
    70   122      0   0   0
    70   288      0   0   0
    70    22      0   0   0
    70    38      0   0   0
    70   110      0   0   0
    70   118      0   0   0
    70   156      0   0   0
    70   176      0   0   0
    70   252      0   0   0
    70   264      0   0   0
    71   123      0   0   0
    71   289      0   0   0
    71    23      0   0   0
    71    39      0   0   0
    71   111      0   0   0
    71   119      0   0   0
    71   157      0   0   0
    71   177      0   0   0
    71   253      0   0   0
    71   265      0   0   0
    72   289      0   0   0
    72   124      0   0  -1
    72    24      0   0   0
    72    40      0   0   0
    72   112      0   0   0
    72   154      0   0   0
    72   254      0   0   0
    72   266      0   0   0
    72   120      0   0  -1
    72   178      0   0  -1
    73   288      0   0   0
    73   125      0   0   1
    73    25      0   0   0
    73    41      0   0   0
    73   113      0   0   0
    73   155      0   0   0
    73   255      0   0   0
    73   267      0   0   0
    73   121      0   0   1
    73   179      0   0   1
    74   291      0   0   0
    74   118      0  -1   0
    74    26      0   0   0
    74    42      0   0   0
    74   111      0   0   0
    74   150      0   0   0
    74   253      0   0   0
    74   270      0   0   0
    74   122      0  -1   0
    74   180      0  -1   0
    75   290      0   0   0
    75   119      0   1   0
    75    27      0   0   0
    75    43      0   0   0
    75   110      0   0   0
    75   151      0   0   0
    75   252      0   0   0
    75   271      0   0   0
    75   123      0   1   0
    75   181      0   1   0
    76   290      0   0   0
    76   120     -1   0   0
    76    28      0   0   0
    76    44      0   0   0
    76   113      0   0   0
    76   152      0   0   0
    76   255      0   0   0
    76   268      0   0   0
    76   124     -1   0   0
    76   182     -1   0   0
    77   291      0   0   0
    77   121      1   0   0
    77    29      0   0   0
    77    45      0   0   0
    77   112      0   0   0
    77   153      0   0   0
    77   254      0   0   0
    77   269      0   0   0
    77   125      1   0   0
    77   183      1   0   0
    78   284      0   0   0
    78   130      0   0   1
    78    30      0   0   0
    78    46      0   0   0
    78   114      0   0   0
    78   148      0   0   0
    78   248      0   0   0
    78   256      0   0   0
    78   126      0   0   1
    78   184      0   0   1
    79   285      0   0   0
    79   131      0   0  -1
    79    31      0   0   0
    79    47      0   0   0
    79   115      0   0   0
    79   149      0   0   0
    79   249      0   0   0
    79   257      0   0   0
    79   127      0   0  -1
    79   185      0   0  -1
    80   132      0   0   0
    80   285      0   0   0
    80    32      0   0   0
    80    48      0   0   0
    80   116      0   0   0
    80   128      0   0   0
    80   146      0   0   0
    80   186      0   0   0
    80   250      0   0   0
    80   258      0   0   0
    81   133      0   0   0
    81   284      0   0   0
    81    33      0   0   0
    81    49      0   0   0
    81   117      0   0   0
    81   129      0   0   0
    81   147      0   0   0
    81   187      0   0   0
    81   251      0   0   0
    81   259      0   0   0
    82   287      0   0   0
    82   126      0   1   0
    82    34      0   0   0
    82    50      0   0   0
    82   115      0   0   0
    82   142      0   0   0
    82   249      0   0   0
    82   262      0   0   0
    82   130      0   1   0
    82   188      0   1   0
    83   286      0   0   0
    83   127      0  -1   0
    83    35      0   0   0
    83    51      0   0   0
    83   114      0   0   0
    83   143      0   0   0
    83   248      0   0   0
    83   263      0   0   0
    83   131      0  -1   0
    83   189      0  -1   0
    84   286      0   0   0
    84   128      1   0   0
    84    36      0   0   0
    84    52      0   0   0
    84   117      0   0   0
    84   144      0   0   0
    84   251      0   0   0
    84   260      0   0   0
    84   132      1   0   0
    84   190      1   0   0
    85   287      0   0   0
    85   129     -1   0   0
    85    37      0   0   0
    85    53      0   0   0
    85   116      0   0   0
    85   145      0   0   0
    85   250      0   0   0
    85   261      0   0   0
    85   133     -1   0   0
    85   191     -1   0   0
    86   180      0   0   0
    86   296      0   0   0
    86    38      0   0   0
    86    54      0   0   0
    86   118      0   0   0
    86   134      0   0   0
    86   176      0   0   0
    86   192      0   0   0
    86   264      0   0   0
    86   273      0   0   0
    87   181      0   0   0
    87   297      0   0   0
    87    39      0   0   0
    87    55      0   0   0
    87   119      0   0   0
    87   135      0   0   0
    87   177      0   0   0
    87   193      0   0   0
    87   265      0   0   0
    87   272      0   0   0
    88   182      0   0   0
    88   297      0   0   1
    88    56      0   0   0
    88   120      0   0   0
    88   136      0   0   0
    88   178      0   0   0
    88   194      0   0   0
    88   275      0   0   0
    88    40      0   0   1
    88   266      0   0   1
    89   183      0   0   0
    89   296      0   0  -1
    89    57      0   0   0
    89   121      0   0   0
    89   137      0   0   0
    89   179      0   0   0
    89   195      0   0   0
    89   274      0   0   0
    89    41      0   0  -1
    89   267      0   0  -1
    90   176      0   0   0
    90   299      0   1   0
    90    58      0   0   0
    90   122      0   0   0
    90   138      0   0   0
    90   180      0   0   0
    90   196      0   0   0
    90   277      0   0   0
    90    42      0   1   0
    90   270      0   1   0
    91   177      0   0   0
    91   298      0  -1   0
    91    59      0   0   0
    91   123      0   0   0
    91   139      0   0   0
    91   181      0   0   0
    91   197      0   0   0
    91   276      0   0   0
    91    43      0  -1   0
    91   271      0  -1   0
    92   178      0   0   0
    92   298      1   0   0
    92    60      0   0   0
    92   124      0   0   0
    92   140      0   0   0
    92   182      0   0   0
    92   198      0   0   0
    92   279      0   0   0
    92    44      1   0   0
    92   268      1   0   0
    93   179      0   0   0
    93   299     -1   0   0
    93    61      0   0   0
    93   125      0   0   0
    93   141      0   0   0
    93   183      0   0   0
    93   199      0   0   0
    93   278      0   0   0
    93    45     -1   0   0
    93   269     -1   0   0
    94   188      0   0   0
    94   292      0   0  -1
    94    55      0   0   0
    94   126      0   0   0
    94   135      0   0   0
    94   184      0   0   0
    94   193      0   0   0
    94   272      0   0   0
    94    46      0   0  -1
    94   256      0   0  -1
    95   189      0   0   0
    95   293      0   0   1
    95    54      0   0   0
    95   127      0   0   0
    95   134      0   0   0
    95   185      0   0   0
    95   192      0   0   0
    95   273      0   0   0
    95    47      0   0   1
    95   257      0   0   1
    96   190      0   0   0
    96   293      0   0   0
    96    48      0   0   0
    96    57      0   0   0
    96   128      0   0   0
    96   137      0   0   0
    96   186      0   0   0
    96   195      0   0   0
    96   258      0   0   0
    96   274      0   0   0
    97   191      0   0   0
    97   292      0   0   0
    97    49      0   0   0
    97    56      0   0   0
    97   129      0   0   0
    97   136      0   0   0
    97   187      0   0   0
    97   194      0   0   0
    97   259      0   0   0
    97   275      0   0   0
    98   184      0   0   0
    98   295      0  -1   0
    98    61      0   0   0
    98   130      0   0   0
    98   141      0   0   0
    98   188      0   0   0
    98   199      0   0   0
    98   278      0   0   0
    98    50      0  -1   0
    98   262      0  -1   0
    99   185      0   0   0
    99   294      0   1   0
    99    60      0   0   0
    99   131      0   0   0
    99   140      0   0   0
    99   189      0   0   0
    99   198      0   0   0
    99   279      0   0   0
    99    51      0   1   0
    99   263      0   1   0
   100   186      0   0   0
   100   294     -1   0   0
   100    59      0   0   0
   100   132      0   0   0
   100   139      0   0   0
   100   190      0   0   0
   100   197      0   0   0
   100   276      0   0   0
   100    52     -1   0   0
   100   260     -1   0   0
   101   187      0   0   0
   101   295      1   0   0
   101    58      0   0   0
   101   133      0   0   0
   101   138      0   0   0
   101   191      0   0   0
   101   196      0   0   0
   101   277      0   0   0
   101    53      1   0   0
   101   261      1   0   0
   102     5      0   0   0
   102   216      0   0   0
   102    14      0   0   0
   102    19      0   0   0
   102    27      0   0   0
   102    34      0   0   0
   102   142      0   0   0
   102   151      0   0   0
   102   200      0   0   0
   102   205      0   0   0
   103     4      0   0   0
   103   217      0   0   0
   103    15      0   0   0
   103    18      0   0   0
   103    26      0   0   0
   103    35      0   0   0
   103   143      0   0   0
   103   150      0   0   0
   103   201      0   0   0
   103   204      0   0   0
   104     4      0   0   0
   104   218      0   0   0
   104    16      0   0   0
   104    21      0   0   0
   104    29      0   0   0
   104    36      0   0   0
   104   144      0   0   0
   104   153      0   0   0
   104   202      0   0   0
   104   207      0   0   0
   105     5      0   0   0
   105   219      0   0   0
   105    17      0   0   0
   105    20      0   0   0
   105    28      0   0   0
   105    37      0   0   0
   105   145      0   0   0
   105   152      0   0   0
   105   203      0   0   0
   105   206      0   0   0
   106     3      0   0   0
   106   220      0   0   0
   106    15      0   0   0
   106    20      0   0   0
   106    23      0   0   0
   106    32      0   0   0
   106   146      0   0   0
   106   157      0   0   0
   106   203      0   0   0
   106   204      0   0   0
   107     2      0   0   0
   107   221      0   0   0
   107    14      0   0   0
   107    21      0   0   0
   107    22      0   0   0
   107    33      0   0   0
   107   147      0   0   0
   107   156      0   0   0
   107   202      0   0   0
   107   205      0   0   0
   108     2      0   0   0
   108   222      0   0   0
   108    17      0   0   0
   108    18      0   0   0
   108    25      0   0   0
   108    30      0   0   0
   108   148      0   0   0
   108   155      0   0   0
   108   201      0   0   0
   108   206      0   0   0
   109     3      0   0   0
   109   223      0   0   0
   109    16      0   0   0
   109    19      0   0   0
   109    24      0   0   0
   109    31      0   0   0
   109   149      0   0   0
   109   154      0   0   0
   109   200      0   0   0
   109   207      0   0   0
   110   252      0   0   0
   110   229      0   1   0
   110    62      0   0   0
   110    70      0   0   0
   110    75      0   0   0
   110   122      0   0   0
   110   213      0   0   0
   110   228      0   0   0
   110   111      0   1   0
   110   119      0   1   0
   111   253      0   0   0
   111   228      0  -1   0
   111    63      0   0   0
   111    71      0   0   0
   111    74      0   0   0
   111   123      0   0   0
   111   212      0   0   0
   111   229      0   0   0
   111   110      0  -1   0
   111   118      0  -1   0
   112   254      0   0   0
   112   231      1   0  -1
   112    64      0   0   0
   112    72      0   0   0
   112    77      0   0   0
   112   215      0   0   0
   112   230      0   0   0
   112   121      1   0   0
   112   113      1   0  -1
   112   124      0   0  -1
   113   255      0   0   0
   113   230     -1   0   1
   113    65      0   0   0
   113    73      0   0   0
   113    76      0   0   0
   113   214      0   0   0
   113   231      0   0   0
   113   120     -1   0   0
   113   112     -1   0   1
   113   125      0   0   1
   114   248      0   0   0
   114   225      0  -1   1
   114    66      0   0   0
   114    78      0   0   0
   114    83      0   0   0
   114   209      0   0   0
   114   224      0   0   0
   114   127      0  -1   0
   114   115      0  -1   1
   114   130      0   0   1
   115   249      0   0   0
   115   224      0   1  -1
   115    67      0   0   0
   115    79      0   0   0
   115    82      0   0   0
   115   208      0   0   0
   115   225      0   0   0
   115   126      0   1   0
   115   114      0   1  -1
   115   131      0   0  -1
   116   250      0   0   0
   116   227     -1   0   0
   116    68      0   0   0
   116    80      0   0   0
   116    85      0   0   0
   116   132      0   0   0
   116   211      0   0   0
   116   226      0   0   0
   116   117     -1   0   0
   116   129     -1   0   0
   117   251      0   0   0
   117   226      1   0   0
   117    69      0   0   0
   117    81      0   0   0
   117    84      0   0   0
   117   133      0   0   0
   117   210      0   0   0
   117   227      0   0   0
   117   116      1   0   0
   117   128      1   0   0
   118   264      0   0   0
   118    74      0   1   0
   118    70      0   0   0
   118    86      0   0   0
   118   122      0   0   0
   118   180      0   0   0
   118   228      0   0   0
   118   240      0   0   0
   118   111      0   1   0
   118   150      0   1   0
   119   265      0   0   0
   119    75      0  -1   0
   119    71      0   0   0
   119    87      0   0   0
   119   123      0   0   0
   119   181      0   0   0
   119   229      0   0   0
   119   241      0   0   0
   119   110      0  -1   0
   119   151      0  -1   0
   120    76      1   0   0
   120   266      0   0   1
   120    88      0   0   0
   120   124      0   0   0
   120   182      0   0   0
   120   242      0   0   0
   120   113      1   0   0
   120   152      1   0   0
   120    72      0   0   1
   120   230      0   0   1
   121    77     -1   0   0
   121   267      0   0  -1
   121    89      0   0   0
   121   125      0   0   0
   121   183      0   0   0
   121   243      0   0   0
   121   112     -1   0   0
   121   153     -1   0   0
   121    73      0   0  -1
   121   231      0   0  -1
   122    70      0   0   0
   122   270      0   1   0
   122    90      0   0   0
   122   110      0   0   0
   122   118      0   0   0
   122   156      0   0   0
   122   176      0   0   0
   122   246      0   0   0
   122    74      0   1   0
   122   229      0   1   0
   123    71      0   0   0
   123   271      0  -1   0
   123    91      0   0   0
   123   111      0   0   0
   123   119      0   0   0
   123   157      0   0   0
   123   177      0   0   0
   123   247      0   0   0
   123    75      0  -1   0
   123   228      0  -1   0
   124   268      1   0   0
   124    72      0   0   1
   124    92      0   0   0
   124   120      0   0   0
   124   178      0   0   0
   124   244      0   0   0
   124    76      1   0   0
   124   231      1   0   0
   124   112      0   0   1
   124   154      0   0   1
   125   269     -1   0   0
   125    73      0   0  -1
   125    93      0   0   0
   125   121      0   0   0
   125   179      0   0   0
   125   245      0   0   0
   125    77     -1   0   0
   125   230     -1   0   0
   125   113      0   0  -1
   125   155      0   0  -1
   126    82      0  -1   0
   126   256      0   0  -1
   126    94      0   0   0
   126   130      0   0   0
   126   188      0   0   0
   126   232      0   0   0
   126   115      0  -1   0
   126   142      0  -1   0
   126    78      0   0  -1
   126   224      0   0  -1
   127    83      0   1   0
   127   257      0   0   1
   127    95      0   0   0
   127   131      0   0   0
   127   189      0   0   0
   127   233      0   0   0
   127   114      0   1   0
   127   143      0   1   0
   127    79      0   0   1
   127   225      0   0   1
   128   258      0   0   0
   128    84     -1   0   0
   128    80      0   0   0
   128    96      0   0   0
   128   132      0   0   0
   128   190      0   0   0
   128   226      0   0   0
   128   234      0   0   0
   128   117     -1   0   0
   128   144     -1   0   0
   129   259      0   0   0
   129    85      1   0   0
   129    81      0   0   0
   129    97      0   0   0
   129   133      0   0   0
   129   191      0   0   0
   129   227      0   0   0
   129   235      0   0   0
   129   116      1   0   0
   129   145      1   0   0
   130   262      0  -1   0
   130    78      0   0  -1
   130    98      0   0   0
   130   126      0   0   0
   130   184      0   0   0
   130   238      0   0   0
   130    82      0  -1   0
   130   225      0  -1   0
   130   114      0   0  -1
   130   148      0   0  -1
   131   263      0   1   0
   131    79      0   0   1
   131    99      0   0   0
   131   127      0   0   0
   131   185      0   0   0
   131   239      0   0   0
   131    83      0   1   0
   131   224      0   1   0
   131   115      0   0   1
   131   149      0   0   1
   132    80      0   0   0
   132   260     -1   0   0
   132   100      0   0   0
   132   116      0   0   0
   132   128      0   0   0
   132   146      0   0   0
   132   186      0   0   0
   132   236      0   0   0
   132    84     -1   0   0
   132   227     -1   0   0
   133    81      0   0   0
   133   261      1   0   0
   133   101      0   0   0
   133   117      0   0   0
   133   129      0   0   0
   133   147      0   0   0
   133   187      0   0   0
   133   237      0   0   0
   133    85      1   0   0
   133   226      1   0   0
   134   273      0   0   0
   134   162      0   1   0
   134    86      0   0   0
   134    95      0   0   0
   134   180      0   0   0
   134   189      0   0   0
   134   233      0   0   0
   134   240      0   0   0
   134   143      0   1   0
   134   150      0   1   0
   135   272      0   0   0
   135   163      0  -1   0
   135    87      0   0   0
   135    94      0   0   0
   135   181      0   0   0
   135   188      0   0   0
   135   232      0   0   0
   135   241      0   0   0
   135   142      0  -1   0
   135   151      0  -1   0
   136   275      0   0   0
   136   164      1   0   0
   136    88      0   0   0
   136    97      0   0   0
   136   182      0   0   0
   136   191      0   0   0
   136   235      0   0   0
   136   242      0   0   0
   136   145      1   0   0
   136   152      1   0   0
   137   274      0   0   0
   137   165     -1   0   0
   137    89      0   0   0
   137    96      0   0   0
   137   183      0   0   0
   137   190      0   0   0
   137   234      0   0   0
   137   243      0   0   0
   137   144     -1   0   0
   137   153     -1   0   0
   138   158      0   0   0
   138   277      0   0   0
   138    90      0   0   0
   138   101      0   0   0
   138   147      0   0   0
   138   156      0   0   0
   138   176      0   0   0
   138   187      0   0   0
   138   237      0   0   0
   138   246      0   0   0
   139   159      0   0   0
   139   276      0   0   0
   139    91      0   0   0
   139   100      0   0   0
   139   146      0   0   0
   139   157      0   0   0
   139   177      0   0   0
   139   186      0   0   0
   139   236      0   0   0
   139   247      0   0   0
   140   279      0   0   0
   140   160      0   0   1
   140    92      0   0   0
   140    99      0   0   0
   140   178      0   0   0
   140   185      0   0   0
   140   239      0   0   0
   140   244      0   0   0
   140   149      0   0   1
   140   154      0   0   1
   141   278      0   0   0
   141   161      0   0  -1
   141    93      0   0   0
   141    98      0   0   0
   141   179      0   0   0
   141   184      0   0   0
   141   238      0   0   0
   141   245      0   0   0
   141   148      0   0  -1
   141   155      0   0  -1
   142    34      0   0   0
   142   232      0   1   0
   142    67      0   0   0
   142    82      0   0   0
   142   102      0   0   0
   142   163      0   0   0
   142   208      0   0   0
   142   216      0   0   0
   142   126      0   1   0
   142   135      0   1   0
   143    35      0   0   0
   143   233      0  -1   0
   143    66      0   0   0
   143    83      0   0   0
   143   103      0   0   0
   143   162      0   0   0
   143   209      0   0   0
   143   217      0   0   0
   143   127      0  -1   0
   143   134      0  -1   0
   144    36      0   0   0
   144   234      1   0   0
   144    69      0   0   0
   144    84      0   0   0
   144   104      0   0   0
   144   165      0   0   0
   144   210      0   0   0
   144   218      0   0   0
   144   128      1   0   0
   144   137      1   0   0
   145    37      0   0   0
   145   235     -1   0   0
   145    68      0   0   0
   145    85      0   0   0
   145   105      0   0   0
   145   164      0   0   0
   145   211      0   0   0
   145   219      0   0   0
   145   129     -1   0   0
   145   136     -1   0   0
   146    32      0   0   0
   146   236      0   0   0
   146    68      0   0   0
   146    80      0   0   0
   146   106      0   0   0
   146   132      0   0   0
   146   139      0   0   0
   146   159      0   0   0
   146   211      0   0   0
   146   220      0   0   0
   147    33      0   0   0
   147   237      0   0   0
   147    69      0   0   0
   147    81      0   0   0
   147   107      0   0   0
   147   133      0   0   0
   147   138      0   0   0
   147   158      0   0   0
   147   210      0   0   0
   147   221      0   0   0
   148    30      0   0   0
   148   238      0   0   1
   148    66      0   0   0
   148    78      0   0   0
   148   108      0   0   0
   148   161      0   0   0
   148   209      0   0   0
   148   222      0   0   0
   148   130      0   0   1
   148   141      0   0   1
   149    31      0   0   0
   149   239      0   0  -1
   149    67      0   0   0
   149    79      0   0   0
   149   109      0   0   0
   149   160      0   0   0
   149   208      0   0   0
   149   223      0   0   0
   149   131      0   0  -1
   149   140      0   0  -1
   150    26      0   0   0
   150   240      0  -1   0
   150    63      0   0   0
   150    74      0   0   0
   150   103      0   0   0
   150   162      0   0   0
   150   212      0   0   0
   150   217      0   0   0
   150   118      0  -1   0
   150   134      0  -1   0
   151    27      0   0   0
   151   241      0   1   0
   151    62      0   0   0
   151    75      0   0   0
   151   102      0   0   0
   151   163      0   0   0
   151   213      0   0   0
   151   216      0   0   0
   151   119      0   1   0
   151   135      0   1   0
   152    28      0   0   0
   152   242     -1   0   0
   152    65      0   0   0
   152    76      0   0   0
   152   105      0   0   0
   152   164      0   0   0
   152   214      0   0   0
   152   219      0   0   0
   152   120     -1   0   0
   152   136     -1   0   0
   153    29      0   0   0
   153   243      1   0   0
   153    64      0   0   0
   153    77      0   0   0
   153   104      0   0   0
   153   165      0   0   0
   153   215      0   0   0
   153   218      0   0   0
   153   121      1   0   0
   153   137      1   0   0
   154    24      0   0   0
   154   244      0   0  -1
   154    64      0   0   0
   154    72      0   0   0
   154   109      0   0   0
   154   160      0   0   0
   154   215      0   0   0
   154   223      0   0   0
   154   124      0   0  -1
   154   140      0   0  -1
   155    25      0   0   0
   155   245      0   0   1
   155    65      0   0   0
   155    73      0   0   0
   155   108      0   0   0
   155   161      0   0   0
   155   214      0   0   0
   155   222      0   0   0
   155   125      0   0   1
   155   141      0   0   1
   156    22      0   0   0
   156   246      0   0   0
   156    62      0   0   0
   156    70      0   0   0
   156   107      0   0   0
   156   122      0   0   0
   156   138      0   0   0
   156   158      0   0   0
   156   213      0   0   0
   156   221      0   0   0
   157    23      0   0   0
   157   247      0   0   0
   157    63      0   0   0
   157    71      0   0   0
   157   106      0   0   0
   157   123      0   0   0
   157   139      0   0   0
   157   159      0   0   0
   157   212      0   0   0
   157   220      0   0   0
   158     6      0   0   0
   158   138      0   0   0
   158    22      0   0   0
   158    33      0   0   0
   158    38      0   0   0
   158    49      0   0   0
   158   147      0   0   0
   158   156      0   0   0
   158   176      0   0   0
   158   187      0   0   0
   159     7      0   0   0
   159   139      0   0   0
   159    23      0   0   0
   159    32      0   0   0
   159    39      0   0   0
   159    48      0   0   0
   159   146      0   0   0
   159   157      0   0   0
   159   177      0   0   0
   159   186      0   0   0
   160     7      0   0   0
   160   140      0   0  -1
   160    24      0   0   0
   160    31      0   0   0
   160    40      0   0   0
   160    47      0   0   0
   160   149      0   0   0
   160   154      0   0   0
   160   178      0   0  -1
   160   185      0   0  -1
   161     6      0   0   0
   161   141      0   0   1
   161    25      0   0   0
   161    30      0   0   0
   161    41      0   0   0
   161    46      0   0   0
   161   148      0   0   0
   161   155      0   0   0
   161   179      0   0   1
   161   184      0   0   1
   162     8      0   0   0
   162   134      0  -1   0
   162    26      0   0   0
   162    35      0   0   0
   162    42      0   0   0
   162    51      0   0   0
   162   143      0   0   0
   162   150      0   0   0
   162   180      0  -1   0
   162   189      0  -1   0
   163     9      0   0   0
   163   135      0   1   0
   163    27      0   0   0
   163    34      0   0   0
   163    43      0   0   0
   163    50      0   0   0
   163   142      0   0   0
   163   151      0   0   0
   163   181      0   1   0
   163   188      0   1   0
   164     9      0   0   0
   164   136     -1   0   0
   164    28      0   0   0
   164    37      0   0   0
   164    44      0   0   0
   164    53      0   0   0
   164   145      0   0   0
   164   152      0   0   0
   164   182     -1   0   0
   164   191     -1   0   0
   165     8      0   0   0
   165   137      1   0   0
   165    29      0   0   0
   165    36      0   0   0
   165    45      0   0   0
   165    52      0   0   0
   165   144      0   0   0
   165   153      0   0   0
   165   183      1   0   0
   165   190      1   0   0
   166    10      0   0   0
   166   196      0   0   0
   166    38      0   0   0
   166    49      0   0   0
   166    54      0   0   0
   166    56      0   0   0
   166   176      0   0   0
   166   187      0   0   0
   166   192      0   0   0
   166   194      0   0   0
   167    11      0   0   0
   167   197      0   0   0
   167    39      0   0   0
   167    48      0   0   0
   167    55      0   0   0
   167    57      0   0   0
   167   177      0   0   0
   167   186      0   0   0
   167   193      0   0   0
   167   195      0   0   0
   168   198      0   0   0
   168    11      0   0   1
   168    54      0   0   0
   168    56      0   0   0
   168   178      0   0   0
   168   185      0   0   0
   168   192      0   0   0
   168   194      0   0   0
   168    40      0   0   1
   168    47      0   0   1
   169   199      0   0   0
   169    10      0   0  -1
   169    55      0   0   0
   169    57      0   0   0
   169   179      0   0   0
   169   184      0   0   0
   169   193      0   0   0
   169   195      0   0   0
   169    41      0   0  -1
   169    46      0   0  -1
   170   192      0   0   0
   170    12      0   1   0
   170    58      0   0   0
   170    60      0   0   0
   170   180      0   0   0
   170   189      0   0   0
   170   196      0   0   0
   170   198      0   0   0
   170    42      0   1   0
   170    51      0   1   0
   171   193      0   0   0
   171    13      0  -1   0
   171    59      0   0   0
   171    61      0   0   0
   171   181      0   0   0
   171   188      0   0   0
   171   197      0   0   0
   171   199      0   0   0
   171    43      0  -1   0
   171    50      0  -1   0
   172   194      0   0   0
   172    13      1   0   0
   172    58      0   0   0
   172    60      0   0   0
   172   182      0   0   0
   172   191      0   0   0
   172   196      0   0   0
   172   198      0   0   0
   172    44      1   0   0
   172    53      1   0   0
   173   195      0   0   0
   173    12     -1   0   0
   173    59      0   0   0
   173    61      0   0   0
   173   183      0   0   0
   173   190      0   0   0
   173   197      0   0   0
   173   199      0   0   0
   173    45     -1   0   0
   173    52     -1   0   0
   174     1      0   0   0
   174   300      0   0   0
   174    14      0   0   0
   174    16      0   0   0
   174    19      0   0   0
   174    21      0   0   0
   174   200      0   0   0
   174   202      0   0   0
   174   205      0   0   0
   174   207      0   0   0
   175     1      0   0   0
   175   301      0   0   0
   175    15      0   0   0
   175    17      0   0   0
   175    18      0   0   0
   175    20      0   0   0
   175   201      0   0   0
   175   203      0   0   0
   175   204      0   0   0
   175   206      0   0   0
   176    38      0   0   0
   176    90      0   0   0
   176    70      0   0   0
   176    86      0   0   0
   176   122      0   0   0
   176   138      0   0   0
   176   158      0   0   0
   176   166      0   0   0
   176   180      0   0   0
   176   196      0   0   0
   177    39      0   0   0
   177    91      0   0   0
   177    71      0   0   0
   177    87      0   0   0
   177   123      0   0   0
   177   139      0   0   0
   177   159      0   0   0
   177   167      0   0   0
   177   181      0   0   0
   177   197      0   0   0
   178    92      0   0   0
   178    40      0   0   1
   178    88      0   0   0
   178   124      0   0   0
   178   140      0   0   0
   178   168      0   0   0
   178   182      0   0   0
   178   198      0   0   0
   178    72      0   0   1
   178   160      0   0   1
   179    93      0   0   0
   179    41      0   0  -1
   179    89      0   0   0
   179   125      0   0   0
   179   141      0   0   0
   179   169      0   0   0
   179   183      0   0   0
   179   199      0   0   0
   179    73      0   0  -1
   179   161      0   0  -1
   180    86      0   0   0
   180    42      0   1   0
   180    90      0   0   0
   180   118      0   0   0
   180   134      0   0   0
   180   170      0   0   0
   180   176      0   0   0
   180   192      0   0   0
   180    74      0   1   0
   180   162      0   1   0
   181    87      0   0   0
   181    43      0  -1   0
   181    91      0   0   0
   181   119      0   0   0
   181   135      0   0   0
   181   171      0   0   0
   181   177      0   0   0
   181   193      0   0   0
   181    75      0  -1   0
   181   163      0  -1   0
   182    88      0   0   0
   182    44      1   0   0
   182    92      0   0   0
   182   120      0   0   0
   182   136      0   0   0
   182   172      0   0   0
   182   178      0   0   0
   182   194      0   0   0
   182    76      1   0   0
   182   164      1   0   0
   183    89      0   0   0
   183    45     -1   0   0
   183    93      0   0   0
   183   121      0   0   0
   183   137      0   0   0
   183   173      0   0   0
   183   179      0   0   0
   183   195      0   0   0
   183    77     -1   0   0
   183   165     -1   0   0
   184    98      0   0   0
   184    46      0   0  -1
   184    94      0   0   0
   184   130      0   0   0
   184   141      0   0   0
   184   169      0   0   0
   184   188      0   0   0
   184   199      0   0   0
   184    78      0   0  -1
   184   161      0   0  -1
   185    99      0   0   0
   185    47      0   0   1
   185    95      0   0   0
   185   131      0   0   0
   185   140      0   0   0
   185   168      0   0   0
   185   189      0   0   0
   185   198      0   0   0
   185    79      0   0   1
   185   160      0   0   1
   186    48      0   0   0
   186   100      0   0   0
   186    80      0   0   0
   186    96      0   0   0
   186   132      0   0   0
   186   139      0   0   0
   186   159      0   0   0
   186   167      0   0   0
   186   190      0   0   0
   186   197      0   0   0
   187    49      0   0   0
   187   101      0   0   0
   187    81      0   0   0
   187    97      0   0   0
   187   133      0   0   0
   187   138      0   0   0
   187   158      0   0   0
   187   166      0   0   0
   187   191      0   0   0
   187   196      0   0   0
   188    94      0   0   0
   188    50      0  -1   0
   188    98      0   0   0
   188   126      0   0   0
   188   135      0   0   0
   188   171      0   0   0
   188   184      0   0   0
   188   193      0   0   0
   188    82      0  -1   0
   188   163      0  -1   0
   189    95      0   0   0
   189    51      0   1   0
   189    99      0   0   0
   189   127      0   0   0
   189   134      0   0   0
   189   170      0   0   0
   189   185      0   0   0
   189   192      0   0   0
   189    83      0   1   0
   189   162      0   1   0
   190    96      0   0   0
   190    52     -1   0   0
   190   100      0   0   0
   190   128      0   0   0
   190   137      0   0   0
   190   173      0   0   0
   190   186      0   0   0
   190   195      0   0   0
   190    84     -1   0   0
   190   165     -1   0   0
   191    97      0   0   0
   191    53      1   0   0
   191   101      0   0   0
   191   129      0   0   0
   191   136      0   0   0
   191   172      0   0   0
   191   187      0   0   0
   191   194      0   0   0
   191    85      1   0   0
   191   164      1   0   0
   192    54      0   0   0
   192   170      0   0   0
   192    86      0   0   0
   192    95      0   0   0
   192   166      0   0   0
   192   168      0   0   0
   192   180      0   0   0
   192   189      0   0   0
   192   196      0   0   0
   192   198      0   0   0
   193    55      0   0   0
   193   171      0   0   0
   193    87      0   0   0
   193    94      0   0   0
   193   167      0   0   0
   193   169      0   0   0
   193   181      0   0   0
   193   188      0   0   0
   193   197      0   0   0
   193   199      0   0   0
   194    56      0   0   0
   194   172      0   0   0
   194    88      0   0   0
   194    97      0   0   0
   194   166      0   0   0
   194   168      0   0   0
   194   182      0   0   0
   194   191      0   0   0
   194   196      0   0   0
   194   198      0   0   0
   195    57      0   0   0
   195   173      0   0   0
   195    89      0   0   0
   195    96      0   0   0
   195   167      0   0   0
   195   169      0   0   0
   195   183      0   0   0
   195   190      0   0   0
   195   197      0   0   0
   195   199      0   0   0
   196    58      0   0   0
   196   166      0   0   0
   196    90      0   0   0
   196   101      0   0   0
   196   170      0   0   0
   196   172      0   0   0
   196   176      0   0   0
   196   187      0   0   0
   196   192      0   0   0
   196   194      0   0   0
   197    59      0   0   0
   197   167      0   0   0
   197    91      0   0   0
   197   100      0   0   0
   197   171      0   0   0
   197   173      0   0   0
   197   177      0   0   0
   197   186      0   0   0
   197   193      0   0   0
   197   195      0   0   0
   198    60      0   0   0
   198   168      0   0   0
   198    92      0   0   0
   198    99      0   0   0
   198   170      0   0   0
   198   172      0   0   0
   198   178      0   0   0
   198   185      0   0   0
   198   192      0   0   0
   198   194      0   0   0
   199    61      0   0   0
   199   169      0   0   0
   199    93      0   0   0
   199    98      0   0   0
   199   171      0   0   0
   199   173      0   0   0
   199   179      0   0   0
   199   184      0   0   0
   199   193      0   0   0
   199   195      0   0   0
   200    19      0   0   0
   200   302      0   0   0
   200    67      0   0   0
   200   102      0   0   0
   200   109      0   0   0
   200   174      0   0   0
   200   208      0   0   0
   200   216      0   0   0
   200   223      0   0   0
   200   300      0   0   0
   201    18      0   0   0
   201   303      0   0   0
   201    66      0   0   0
   201   103      0   0   0
   201   108      0   0   0
   201   175      0   0   0
   201   209      0   0   0
   201   217      0   0   0
   201   222      0   0   0
   201   301      0   0   0
   202    21      0   0   0
   202   304      0   0   0
   202    69      0   0   0
   202   104      0   0   0
   202   107      0   0   0
   202   174      0   0   0
   202   210      0   0   0
   202   218      0   0   0
   202   221      0   0   0
   202   300      0   0   0
   203    20      0   0   0
   203   305      0   0   0
   203    68      0   0   0
   203   105      0   0   0
   203   106      0   0   0
   203   175      0   0   0
   203   211      0   0   0
   203   219      0   0   0
   203   220      0   0   0
   203   301      0   0   0
   204    15      0   0   0
   204   306      0   0   0
   204    63      0   0   0
   204   103      0   0   0
   204   106      0   0   0
   204   175      0   0   0
   204   212      0   0   0
   204   217      0   0   0
   204   220      0   0   0
   204   301      0   0   0
   205    14      0   0   0
   205   307      0   0   0
   205    62      0   0   0
   205   102      0   0   0
   205   107      0   0   0
   205   174      0   0   0
   205   213      0   0   0
   205   216      0   0   0
   205   221      0   0   0
   205   300      0   0   0
   206    17      0   0   0
   206   308      0   0   0
   206    65      0   0   0
   206   105      0   0   0
   206   108      0   0   0
   206   175      0   0   0
   206   214      0   0   0
   206   219      0   0   0
   206   222      0   0   0
   206   301      0   0   0
   207    16      0   0   0
   207   309      0   0   0
   207    64      0   0   0
   207   104      0   0   0
   207   109      0   0   0
   207   174      0   0   0
   207   215      0   0   0
   207   218      0   0   0
   207   223      0   0   0
   207   300      0   0   0
   208    67      0   0   0
   208   310      0   1  -1
   208   115      0   0   0
   208   142      0   0   0
   208   149      0   0   0
   208   200      0   0   0
   208   302      0   0   0
   208   232      0   1   0
   208   224      0   1  -1
   208   239      0   0  -1
   209    66      0   0   0
   209   311      0  -1   1
   209   114      0   0   0
   209   143      0   0   0
   209   148      0   0   0
   209   201      0   0   0
   209   303      0   0   0
   209   233      0  -1   0
   209   225      0  -1   1
   209   238      0   0   1
   210    69      0   0   0
   210   312      1   0   0
   210   117      0   0   0
   210   144      0   0   0
   210   147      0   0   0
   210   202      0   0   0
   210   237      0   0   0
   210   304      0   0   0
   210   226      1   0   0
   210   234      1   0   0
   211    68      0   0   0
   211   313     -1   0   0
   211   116      0   0   0
   211   145      0   0   0
   211   146      0   0   0
   211   203      0   0   0
   211   236      0   0   0
   211   305      0   0   0
   211   227     -1   0   0
   211   235     -1   0   0
   212    63      0   0   0
   212   314      0  -1   0
   212   111      0   0   0
   212   150      0   0   0
   212   157      0   0   0
   212   204      0   0   0
   212   247      0   0   0
   212   306      0   0   0
   212   228      0  -1   0
   212   240      0  -1   0
   213    62      0   0   0
   213   315      0   1   0
   213   110      0   0   0
   213   151      0   0   0
   213   156      0   0   0
   213   205      0   0   0
   213   246      0   0   0
   213   307      0   0   0
   213   229      0   1   0
   213   241      0   1   0
   214    65      0   0   0
   214   316     -1   0   1
   214   113      0   0   0
   214   152      0   0   0
   214   155      0   0   0
   214   206      0   0   0
   214   308      0   0   0
   214   242     -1   0   0
   214   230     -1   0   1
   214   245      0   0   1
   215    64      0   0   0
   215   317      1   0  -1
   215   112      0   0   0
   215   153      0   0   0
   215   154      0   0   0
   215   207      0   0   0
   215   309      0   0   0
   215   243      1   0   0
   215   231      1   0  -1
   215   244      0   0  -1
   216   102      0   0   0
   216   318      0   1   0
   216   142      0   0   0
   216   151      0   0   0
   216   200      0   0   0
   216   205      0   0   0
   216   302      0   0   0
   216   307      0   0   0
   216   232      0   1   0
   216   241      0   1   0
   217   103      0   0   0
   217   319      0  -1   0
   217   143      0   0   0
   217   150      0   0   0
   217   201      0   0   0
   217   204      0   0   0
   217   303      0   0   0
   217   306      0   0   0
   217   233      0  -1   0
   217   240      0  -1   0
   218   104      0   0   0
   218   320      1   0   0
   218   144      0   0   0
   218   153      0   0   0
   218   202      0   0   0
   218   207      0   0   0
   218   304      0   0   0
   218   309      0   0   0
   218   234      1   0   0
   218   243      1   0   0
   219   105      0   0   0
   219   321     -1   0   0
   219   145      0   0   0
   219   152      0   0   0
   219   203      0   0   0
   219   206      0   0   0
   219   305      0   0   0
   219   308      0   0   0
   219   235     -1   0   0
   219   242     -1   0   0
   220   106      0   0   0
   220   322      0   0   0
   220   146      0   0   0
   220   157      0   0   0
   220   203      0   0   0
   220   204      0   0   0
   220   236      0   0   0
   220   247      0   0   0
   220   305      0   0   0
   220   306      0   0   0
   221   107      0   0   0
   221   323      0   0   0
   221   147      0   0   0
   221   156      0   0   0
   221   202      0   0   0
   221   205      0   0   0
   221   237      0   0   0
   221   246      0   0   0
   221   304      0   0   0
   221   307      0   0   0
   222   108      0   0   0
   222   324      0   0   1
   222   148      0   0   0
   222   155      0   0   0
   222   201      0   0   0
   222   206      0   0   0
   222   303      0   0   0
   222   308      0   0   0
   222   238      0   0   1
   222   245      0   0   1
   223   109      0   0   0
   223   325      0   0  -1
   223   149      0   0   0
   223   154      0   0   0
   223   200      0   0   0
   223   207      0   0   0
   223   302      0   0   0
   223   309      0   0   0
   223   239      0   0  -1
   223   244      0   0  -1
   224   326      0   0   0
   224   115      0  -1   1
   224   114      0   0   0
   224   248      0   0   0
   224   256      0   0   0
   224   263      0   0   0
   224   310      0   0   0
   224   131      0  -1   0
   224   208      0  -1   1
   224   126      0   0   1
   225   327      0   0   0
   225   114      0   1  -1
   225   115      0   0   0
   225   249      0   0   0
   225   257      0   0   0
   225   262      0   0   0
   225   311      0   0   0
   225   130      0   1   0
   225   209      0   1  -1
   225   127      0   0  -1
   226   327      0   0   0
   226   117     -1   0   0
   226   116      0   0   0
   226   128      0   0   0
   226   250      0   0   0
   226   258      0   0   0
   226   261      0   0   0
   226   312      0   0   0
   226   133     -1   0   0
   226   210     -1   0   0
   227   326      0   0   0
   227   116      1   0   0
   227   117      0   0   0
   227   129      0   0   0
   227   251      0   0   0
   227   259      0   0   0
   227   260      0   0   0
   227   313      0   0   0
   227   132      1   0   0
   227   211      1   0   0
   228   328      0   0   0
   228   111      0   1   0
   228   110      0   0   0
   228   118      0   0   0
   228   252      0   0   0
   228   264      0   0   0
   228   271      0   0   0
   228   314      0   0   0
   228   123      0   1   0
   228   212      0   1   0
   229   329      0   0   0
   229   110      0  -1   0
   229   111      0   0   0
   229   119      0   0   0
   229   253      0   0   0
   229   265      0   0   0
   229   270      0   0   0
   229   315      0   0   0
   229   122      0  -1   0
   229   213      0  -1   0
   230   329      0   0   0
   230   113      1   0  -1
[...]
   275   136      0   0   0
   275   272      0   0   1
   275    88      0   0   0
   275    97      0   0   0
   275   235      0   0   0
   275   242      0   0   0
   275   292      0   0   0
   275   330      0   0   0
   275   297      0   0   1
   275   335      0   0   1
   276   139      0   0   0
   276   279     -1  -1   0
   276    91      0   0   0
   276   100      0   0   0
   276   236      0   0   0
   276   247      0   0   0
   276   298      0  -1   0
   276   336      0  -1   0
   276   294     -1   0   0
   276   332     -1   0   0
   277   138      0   0   0
   277   278      1   1   0
   277    90      0   0   0
   277   101      0   0   0
   277   237      0   0   0
   277   246      0   0   0
   277   295      1   0   0
   277   333      1   0   0
   277   299      0   1   0
   277   337      0   1   0
   278   141      0   0   0
   278   277     -1  -1   0
   278    93      0   0   0
   278    98      0   0   0
   278   238      0   0   0
   278   245      0   0   0
   278   295      0  -1   0
   278   333      0  -1   0
   278   299     -1   0   0
   278   337     -1   0   0
   279   140      0   0   0
   279   276      1   1   0
   279    92      0   0   0
   279    99      0   0   0
   279   239      0   0   0
   279   244      0   0   0
   279   298      1   0   0
   279   336      1   0   0
   279   294      0   1   0
   279   332      0   1   0
   280    66      0   0   0
   280    69      0   0   0
   280    18      0   0   0
   280    21      0   0   0
   280    30      0   0   0
   280    33      0   0   0
   280    35      0   0   0
   280    36      0   0   0
   280   248      0   0   0
   280   251      0   0   0
   281    67      0   0   0
   281    68      0   0   0
   281    19      0   0   0
   281    20      0   0   0
   281    31      0   0   0
   281    32      0   0   0
   281    34      0   0   0
   281    37      0   0   0
   281   249      0   0   0
   281   250      0   0   0
   282    62      0   0   0
   282    65      0   0   0
   282    14      0   0   0
   282    17      0   0   0
   282    22      0   0   0
   282    25      0   0   0
   282    27      0   0   0
   282    28      0   0   0
   282   252      0   0   0
   282   255      0   0   0
   283    63      0   0   0
   283    64      0   0   0
   283    15      0   0   0
   283    16      0   0   0
   283    23      0   0   0
   283    24      0   0   0
   283    26      0   0   0
   283    29      0   0   0
   283   253      0   0   0
   283   254      0   0   0
   284    78      0   0   0
   284    81      0   0   0
   284    30      0   0   0
   284    33      0   0   0
   284    46      0   0   0
   284    49      0   0   0
   284   248      0   0   0
   284   251      0   0   0
   284   256      0   0   0
   284   259      0   0   0
   285    79      0   0   0
   285    80      0   0   0
   285    31      0   0   0
   285    32      0   0   0
   285    47      0   0   0
   285    48      0   0   0
   285   249      0   0   0
   285   250      0   0   0
   285   257      0   0   0
   285   258      0   0   0
   286    83      0   0   0
   286    84      0   0   0
   286    35      0   0   0
   286    36      0   0   0
   286    51      0   0   0
   286    52      0   0   0
   286   248      0   0   0
   286   251      0   0   0
   286   260      0   0   0
   286   263      0   0   0
   287    82      0   0   0
   287    85      0   0   0
   287    34      0   0   0
   287    37      0   0   0
   287    50      0   0   0
   287    53      0   0   0
   287   249      0   0   0
   287   250      0   0   0
   287   261      0   0   0
   287   262      0   0   0
   288    70      0   0   0
   288    73      0   0   0
   288    22      0   0   0
   288    25      0   0   0
   288    38      0   0   0
   288    41      0   0   0
   288   252      0   0   0
   288   255      0   0   0
   288   264      0   0   0
   288   267      0   0   0
   289    71      0   0   0
   289    72      0   0   0
   289    23      0   0   0
   289    24      0   0   0
   289    39      0   0   0
   289    40      0   0   0
   289   253      0   0   0
   289   254      0   0   0
   289   265      0   0   0
   289   266      0   0   0
   290    75      0   0   0
   290    76      0   0   0
   290    27      0   0   0
   290    28      0   0   0
   290    43      0   0   0
   290    44      0   0   0
   290   252      0   0   0
   290   255      0   0   0
   290   268      0   0   0
   290   271      0   0   0
   291    74      0   0   0
   291    77      0   0   0
   291    26      0   0   0
   291    29      0   0   0
   291    42      0   0   0
   291    45      0   0   0
   291   253      0   0   0
   291   254      0   0   0
   291   269      0   0   0
   291   270      0   0   0
   292    97      0   0   0
   292    94      0   0   1
   292    46      0   0   0
   292    49      0   0   0
   292    56      0   0   0
   292   256      0   0   0
   292   259      0   0   0
   292   275      0   0   0
   292    55      0   0   1
   292   272      0   0   1
   293    96      0   0   0
   293    95      0   0  -1
   293    47      0   0   0
   293    48      0   0   0
   293    57      0   0   0
   293   257      0   0   0
   293   258      0   0   0
   293   274      0   0   0
   293    54      0   0  -1
   293   273      0   0  -1
   294   100      1   0   0
   294    99      0  -1   0
   294    51      0   0   0
   294    52      0   0   0
   294   260      0   0   0
   294   263      0   0   0
   294    59      1   0   0
   294   276      1   0   0
   294    60      0  -1   0
   294   279      0  -1   0
   295    98      0   1   0
   295   101     -1   0   0
   295    50      0   0   0
   295    53      0   0   0
   295   261      0   0   0
   295   262      0   0   0
   295    61      0   1   0
   295   278      0   1   0
   295    58     -1   0   0
   295   277     -1   0   0
   296    86      0   0   0
   296    89      0   0   1
   296    38      0   0   0
   296    41      0   0   0
   296    54      0   0   0
   296   264      0   0   0
   296   267      0   0   0
   296   273      0   0   0
   296    57      0   0   1
   296   274      0   0   1
   297    87      0   0   0
   297    88      0   0  -1
   297    39      0   0   0
   297    40      0   0   0
   297    55      0   0   0
   297   265      0   0   0
   297   266      0   0   0
   297   272      0   0   0
   297    56      0   0  -1
   297   275      0   0  -1
   298    91      0   1   0
   298    92     -1   0   0
   298    43      0   0   0
   298    44      0   0   0
   298   268      0   0   0
   298   271      0   0   0
   298    59      0   1   0
   298   276      0   1   0
   298    60     -1   0   0
   298   279     -1   0   0
   299    93      1   0   0
   299    90      0  -1   0
   299    42      0   0   0
   299    45      0   0   0
   299   269      0   0   0
   299   270      0   0   0
   299    61      1   0   0
   299   278      1   0   0
   299    58      0  -1   0
   299   277      0  -1   0
   300   174      0   0   0
   300   338      0   0   0
   300   200      0   0   0
   300   202      0   0   0
   300   205      0   0   0
   300   207      0   0   0
   300   302      0   0   0
   300   304      0   0   0
   300   307      0   0   0
   300   309      0   0   0
   301   175      0   0   0
   301   339      0   0   0
   301   201      0   0   0
   301   203      0   0   0
   301   204      0   0   0
   301   206      0   0   0
   301   303      0   0   0
   301   305      0   0   0
   301   306      0   0   0
   301   308      0   0   0
   302   200      0   0   0
   302   340      0   1  -1
   302   208      0   0   0
   302   216      0   0   0
   302   223      0   0   0
   302   300      0   0   0
   302   338      0   0   0
   302   318      0   1   0
   302   310      0   1  -1
   302   325      0   0  -1
   303   201      0   0   0
   303   341      0  -1   1
   303   209      0   0   0
   303   217      0   0   0
   303   222      0   0   0
   303   301      0   0   0
   303   339      0   0   0
   303   319      0  -1   0
   303   311      0  -1   1
   303   324      0   0   1
   304   202      0   0   0
   304   341      1   0   0
   304   210      0   0   0
   304   218      0   0   0
   304   221      0   0   0
   304   300      0   0   0
   304   323      0   0   0
   304   338      0   0   0
   304   312      1   0   0
   304   320      1   0   0
   305   203      0   0   0
   305   340     -1   0   0
   305   211      0   0   0
   305   219      0   0   0
   305   220      0   0   0
   305   301      0   0   0
   305   322      0   0   0
   305   339      0   0   0
   305   313     -1   0   0
   305   321     -1   0   0
   306   204      0   0   0
   306   342      0  -1   0
   306   212      0   0   0
   306   217      0   0   0
   306   220      0   0   0
   306   301      0   0   0
   306   322      0   0   0
   306   339      0   0   0
   306   314      0  -1   0
   306   319      0  -1   0
   307   205      0   0   0
   307   343      0   1   0
   307   213      0   0   0
   307   216      0   0   0
   307   221      0   0   0
   307   300      0   0   0
   307   323      0   0   0
   307   338      0   0   0
   307   315      0   1   0
   307   318      0   1   0
   308   206      0   0   0
   308   343     -1   0   1
   308   214      0   0   0
   308   219      0   0   0
   308   222      0   0   0
   308   301      0   0   0
   308   339      0   0   0
   308   321     -1   0   0
   308   316     -1   0   1
   308   324      0   0   1
   309   207      0   0   0
   309   342      1   0  -1
   309   215      0   0   0
   309   218      0   0   0
   309   223      0   0   0
   309   300      0   0   0
   309   338      0   0   0
   309   320      1   0   0
   309   317      1   0  -1
   309   325      0   0  -1
   310   313      0   0   0
   310   208      0  -1   1
   310   224      0   0   0
   310   326      0   0   0
   310   330      0   0   0
   310   332      0   0   0
   310   340      0   0   0
   310   239      0  -1   0
   310   302      0  -1   1
   310   232      0   0   1
   311   312      0   0   0
   311   209      0   1  -1
   311   225      0   0   0
   311   327      0   0   0
   311   331      0   0   0
   311   333      0   0   0
   311   341      0   0   0
   311   238      0   1   0
   311   303      0   1  -1
   311   233      0   0  -1
   312   311      0   0   0
   312   210     -1   0   0
   312   226      0   0   0
   312   234      0   0   0
   312   327      0   0   0
   312   331      0   0   0
   312   333      0   0   0
   312   341      0   0   0
   312   237     -1   0   0
   312   304     -1   0   0
   313   310      0   0   0
   313   211      1   0   0
   313   227      0   0   0
   313   235      0   0   0
   313   326      0   0   0
   313   330      0   0   0
   313   332      0   0   0
   313   340      0   0   0
   313   236      1   0   0
   313   305      1   0   0
   314   317      0   0   0
   314   212      0   1   0
   314   228      0   0   0
   314   240      0   0   0
   314   328      0   0   0
   314   334      0   0   0
   314   336      0   0   0
   314   342      0   0   0
   314   247      0   1   0
   314   306      0   1   0
   315   316      0   0   0
   315   213      0  -1   0
   315   229      0   0   0
   315   241      0   0   0
   315   329      0   0   0
   315   335      0   0   0
   315   337      0   0   0
   315   343      0   0   0
   315   246      0  -1   0
   315   307      0  -1   0
   316   315      0   0   0
   316   214      1   0  -1
   316   230      0   0   0
   316   329      0   0   0
   316   335      0   0   0
   316   337      0   0   0
   316   343      0   0   0
   316   245      1   0   0
   316   308      1   0  -1
   316   242      0   0  -1
   317   314      0   0   0
   317   215     -1   0   1
   317   231      0   0   0
   317   328      0   0   0
   317   334      0   0   0
   317   336      0   0   0
   317   342      0   0   0
   317   244     -1   0   0
   317   309     -1   0   1
   317   243      0   0   1
   318   216      0  -1   0
   318   321      0   0  -1
   318   232      0   0   0
   318   241      0   0   0
   318   335      0   0   0
   318   343      0   0   0
   318   302      0  -1   0
   318   307      0  -1   0
   318   330      0   0  -1
   318   340      0   0  -1
   319   217      0   1   0
   319   320      0   0   1
   319   233      0   0   0
   319   240      0   0   0
   319   334      0   0   0
   319   342      0   0   0
   319   303      0   1   0
   319   306      0   1   0
   319   331      0   0   1
   319   341      0   0   1
   320   218     -1   0   0
   320   319      0   0  -1
   320   234      0   0   0
   320   243      0   0   0
   320   331      0   0   0
   320   341      0   0   0
   320   304     -1   0   0
   320   309     -1   0   0
   320   334      0   0  -1
   320   342      0   0  -1
   321   219      1   0   0
   321   318      0   0   1
   321   235      0   0   0
   321   242      0   0   0
   321   330      0   0   0
   321   340      0   0   0
   321   305      1   0   0
   321   308      1   0   0
   321   335      0   0   1
   321   343      0   0   1
   322   220      0   0   0
   322   325     -1  -1   0
   322   236      0   0   0
   322   247      0   0   0
   322   305      0   0   0
   322   306      0   0   0
   322   336      0  -1   0
   322   342      0  -1   0
   322   332     -1   0   0
   322   340     -1   0   0
   323   221      0   0   0
   323   324      1   1   0
   323   237      0   0   0
   323   246      0   0   0
   323   304      0   0   0
   323   307      0   0   0
   323   333      1   0   0
   323   341      1   0   0
   323   337      0   1   0
   323   343      0   1   0
   324   222      0   0  -1
   324   323     -1  -1   0
   324   238      0   0   0
   324   245      0   0   0
   324   333      0  -1   0
   324   341      0  -1   0
   324   337     -1   0   0
   324   343     -1   0   0
   324   303      0   0  -1
   324   308      0   0  -1
   325   223      0   0   1
   325   322      1   1   0
   325   239      0   0   0
   325   244      0   0   0
   325   336      1   0   0
   325   342      1   0   0
   325   332      0   1   0
   325   340      0   1   0
   325   302      0   0   1
   325   309      0   0   1
   326   224      0   0   0
   326   227      0   0   0
   326   248      0   0   0
   326   251      0   0   0
   326   256      0   0   0
   326   259      0   0   0
   326   260      0   0   0
   326   263      0   0   0
   326   310      0   0   0
   326   313      0   0   0
   327   225      0   0   0
   327   226      0   0   0
   327   249      0   0   0
   327   250      0   0   0
   327   257      0   0   0
   327   258      0   0   0
   327   261      0   0   0
   327   262      0   0   0
   327   311      0   0   0
   327   312      0   0   0
   328   228      0   0   0
   328   231      0   0   0
   328   252      0   0   0
   328   255      0   0   0
   328   264      0   0   0
   328   267      0   0   0
   328   268      0   0   0
   328   271      0   0   0
   328   314      0   0   0
   328   317      0   0   0
   329   229      0   0   0
   329   230      0   0   0
   329   253      0   0   0
   329   254      0   0   0
   329   265      0   0   0
   329   266      0   0   0
   329   269      0   0   0
   329   270      0   0   0
   329   315      0   0   0
   329   316      0   0   0
   330   235      0   0   0
   330   232      0   0   1
   330   256      0   0   0
   330   259      0   0   0
   330   275      0   0   0
   330   310      0   0   0
   330   313      0   0   0
   330   321      0   0   0
   330   272      0   0   1
   330   318      0   0   1
   331   234      0   0   0
   331   233      0   0  -1
   331   257      0   0   0
   331   258      0   0   0
   331   274      0   0   0
   331   311      0   0   0
   331   312      0   0   0
   331   320      0   0   0
   331   273      0   0  -1
   331   319      0   0  -1
   332   236      1   0   0
   332   239      0  -1   0
   332   260      0   0   0
   332   263      0   0   0
   332   310      0   0   0
   332   313      0   0   0
   332   276      1   0   0
   332   322      1   0   0
   332   279      0  -1   0
   332   325      0  -1   0
   333   238      0   1   0
   333   237     -1   0   0
   333   261      0   0   0
   333   262      0   0   0
   333   311      0   0   0
   333   312      0   0   0
   333   278      0   1   0
   333   324      0   1   0
   333   277     -1   0   0
   333   323     -1   0   0
   334   240      0   0   0
   334   243      0   0   1
   334   264      0   0   0
   334   267      0   0   0
   334   273      0   0   0
   334   314      0   0   0
   334   317      0   0   0
   334   319      0   0   0
   334   274      0   0   1
   334   320      0   0   1
   335   241      0   0   0
   335   242      0   0  -1
   335   265      0   0   0
   335   266      0   0   0
   335   272      0   0   0
   335   315      0   0   0
   335   316      0   0   0
   335   318      0   0   0
   335   275      0   0  -1
   335   321      0   0  -1
   336   247      0   1   0
   336   244     -1   0   0
   336   268      0   0   0
   336   271      0   0   0
   336   314      0   0   0
   336   317      0   0   0
   336   276      0   1   0
   336   322      0   1   0
   336   279     -1   0   0
   336   325     -1   0   0
   337   245      1   0   0
   337   246      0  -1   0
   337   269      0   0   0
   337   270      0   0   0
   337   315      0   0   0
   337   316      0   0   0
   337   278      1   0   0
   337   324      1   0   0
   337   277      0  -1   0
   337   323      0  -1   0
   338   300      0   0   0
   338   339      1   1  -1
   338   302      0   0   0
   338   304      0   0   0
   338   307      0   0   0
   338   309      0   0   0
   338   341      1   0   0
   338   343      0   1   0
   338   342      1   0  -1
   338   340      0   1  -1
   339   301      0   0   0
   339   338     -1  -1   1
   339   303      0   0   0
   339   305      0   0   0
   339   306      0   0   0
   339   308      0   0   0
   339   342      0  -1   0
   339   340     -1   0   0
   339   341      0  -1   1
   339   343     -1   0   1
   340   305      1   0   0
   340   302      0  -1   1
   340   310      0   0   0
   340   313      0   0   0
   340   321      0   0   0
   340   322      1   0   0
   340   339      1   0   0
   340   325      0  -1   0
   340   338      0  -1   1
   340   318      0   0   1
   341   304     -1   0   0
   341   303      0   1  -1
   341   311      0   0   0
   341   312      0   0   0
   341   320      0   0   0
   341   324      0   1   0
   341   323     -1   0   0
   341   338     -1   0   0
   341   339      0   1  -1
   341   319      0   0  -1
   342   306      0   1   0
   342   309     -1   0   1
   342   314      0   0   0
   342   317      0   0   0
   342   319      0   0   0
   342   322      0   1   0
   342   339      0   1   0
   342   325     -1   0   0
   342   338     -1   0   1
   342   320      0   0   1
   343   307      0  -1   0
   343   308      1   0  -1
   343   315      0   0   0
   343   316      0   0   0
   343   318      0   0   0
   343   324      1   0   0
   343   323      0  -1   0
   343   338      0  -1   0
   343   339      1   0  -1
   343   321      0   0  -1
end nnkpts

begin exclude_bands
 120
   1
   2
   3
   4
   5
   6
   7
   8
   9
  10
  11
  12
  13
  14
  15
  16
  17
  18
  19
  20
  21
  22
  23
  24
  25
  34
  35
  36
  37
  38
  39
  40
  41
  42
  43
  44
  45
  46
  47
  48
  49
  50
  51
  52
  53
  54
  55
  56
  57
  58
  59
  60
  61
  62
  63
  64
  65
  66
  67
  68
  69
  70
  71
  72
  73
  74
  75
  76
  77
  78
  79
  80
  81
  82
  83
  84
  85
  86
  87
  88
  89
  90
  91
  92
  93
  94
  95
  96
  97
  98
  99
 100
 101
 102
 103
 104
 105
 106
 107
 108
 109
 110
 111
 112
 113
 114
 115
 116
 117
 118
 119
 120
 121
 122
 123
 124
 125
 126
 127
 128
end exclude_bands
