
             +---------------------------------------------------+
             |                                                   |
             |                   WANNIER90                       |
             |                                                   |
             +---------------------------------------------------+
             |                                                   |
             |        Welcome to the Maximally-Localized         |
             |        Generalized Wannier Functions code         |
             |            http://www.wannier.org                 |
             |                                                   |
             |                                                   |
             |  Wannier90 Developer Group:                       |
             |    Giovanni Pizzi    (EPFL)                       |
             |    Valerio Vitale    (Cambridge)                  |
             |    David Vanderbilt  (Rutgers University)         |
             |    Nicola Marzari    (EPFL)                       |
             |    Ivo Souza         (Universidad del Pais Vasco) |
             |    Arash A. Mostofi  (Imperial College London)    |
             |    Jonathan R. Yates (University of Oxford)       |
             |                                                   |
             |  For the full list of Wannier90 3.x authors,      |
             |  please check the code documentation and the      |
             |  README on the GitHub page of the code            |
             |                                                   |
             |                                                   |
             |  Please cite                                      |
             |                                                   |
             |  [ref] "Wannier90 as a community code:            |
             |        new features and applications",            |
             |        G. Pizzi et al., J. Phys. Cond. Matt. 32,  |
             |        165902 (2020).                             |
             |        http://doi.org/10.1088/1361-648X/ab51ff    |
             |                                                   |
             |  in any publications arising from the use of      |
             |  this code. For the method please cite            |
             |                                                   |
             |  [ref] "Maximally Localized Generalised Wannier   |
             |         Functions for Composite Energy Bands"     |
             |         N. Marzari and D. Vanderbilt              |
             |         Phys. Rev. B 56 12847 (1997)              |
             |                                                   |
             |  [ref] "Maximally Localized Wannier Functions     |
             |         for Entangled Energy Bands"               |
             |         I. Souza, N. Marzari and D. Vanderbilt    |
             |         Phys. Rev. B 65 035109 (2001)             |
             |                                                   |
             |                                                   |
             | Copyright (c) 1996-2020                           |
             |        The Wannier90 Developer Group and          |
             |        individual contributors                    |
             |                                                   |
             |      Release: 3.1.0        5th March    2020      |
             |                                                   |
             | This program is free software; you can            |
             | redistribute it and/or modify it under the terms  |
             | of the GNU General Public License as published by |
             | the Free Software Foundation; either version 2 of |
             | the License, or (at your option) any later version|
             |                                                   |
             | This program is distributed in the hope that it   |
             | will be useful, but WITHOUT ANY WARRANTY; without |
             | even the implied warranty of MERCHANTABILITY or   |
             | FITNESS FOR A PARTICULAR PURPOSE. See the GNU     |
             | General Public License for more details.          |
             |                                                   |
             | You should have received a copy of the GNU General|
             | Public License along with this program; if not,   |
             | write to the Free Software Foundation, Inc.,      |
             | 675 Mass Ave, Cambridge, MA 02139, USA.           |
             |                                                   |
             +---------------------------------------------------+
             |    Execution started on  2Feb2024 at 17:48:15     |
             +---------------------------------------------------+
 
 ******************************************************************************
 * -> Using CODATA 2006 constant values                                       *
 *    (http://physics.nist.gov/cuu/Constants/index.html)                      *
 * -> Using Bohr value from CODATA                                            *
 ******************************************************************************
 

 Running in serial (with serial executable)

                                    ------
                                    SYSTEM
                                    ------

                              Lattice Vectors (Ang)
                    a_1    -1.954744   1.954746   6.277715
                    a_2     1.954745  -1.954745   6.277715
                    a_3     1.954745   1.954745  -6.277715

                   Unit Cell Volume:      95.94932  (Ang^3)

                        Reciprocal-Space Vectors (Ang^-1)
                    b_1     0.000000   1.607162   0.500436
                    b_2     1.607162  -0.000000   0.500436
                    b_3     1.607162   1.607162  -0.000000
  
 *----------------------------------------------------------------------------*
 |   Site       Fractional Coordinate          Cartesian Coordinate (Ang)     |
 +----------------------------------------------------------------------------+
 | Fe   1   0.00000   0.00000   0.00000   |    0.00000   0.00000   0.00000    |
 | Sr   1   0.64283   0.64283  -0.00000   |    0.00000   0.00000   8.07097    |
 | Sr   2   0.35717   0.35717  -0.00000   |    0.00000   0.00000   4.48446    |
 | O    1   0.84202   0.84202  -0.00000   |    0.00000   0.00000  10.57197    |
 | O    2   0.15798   0.15798  -0.00000   |    0.00000   0.00000   1.98346    |
 | O    3   0.50000  -0.00000   0.50000   |    0.00000   1.95475   0.00000    |
 | O    4   0.00000   0.50000   0.50000   |    1.95475   0.00000   0.00000    |
 *----------------------------------------------------------------------------*
                                -----------
                                PROJECTIONS
                                -----------
  
 +----------------------------------------------------------------------------+
 |     Frac. Coord.   l mr  r        z-axis               x-axis          Z/a |
 +----------------------------------------------------------------------------+
 |  0.00  0.00  0.00  2  1  1  0.000  0.000  1.000  1.000  0.000  0.000   1.0 |
 |  0.00  0.00  0.00  2  2  1  0.000  0.000  1.000  1.000  0.000  0.000   1.0 |
 |  0.00  0.00  0.00  2  3  1  0.000  0.000  1.000  1.000  0.000  0.000   1.0 |
 |  0.00  0.00  0.00  2  4  1  0.000  0.000  1.000  1.000  0.000  0.000   1.0 |
 |  0.00  0.00  0.00  2  5  1  0.000  0.000  1.000  1.000  0.000  0.000   1.0 |
 +----------------------------------------------------------------------------+
  
                                ------------
                                K-POINT GRID
                                ------------
  
             Grid size =  6 x  6 x  6      Total points =  216
  
 *----------------------------------------------------------------------------*
 | k-point      Fractional Coordinate        Cartesian Coordinate (Ang^-1)    |
 +----------------------------------------------------------------------------+
 |     1    0.00000   0.00000   0.00000   |    0.00000   0.00000   0.00000    |
 |     2    0.00000  -0.00000   0.16667   |    0.26786   0.26786  -0.00000    |
 |     3    0.00000  -0.00000   0.33333   |    0.53572   0.53572  -0.00000    |
 |     4   -0.00000   0.00000  -0.50000   |   -0.80358  -0.80358   0.00000    |
 |     5   -0.00000   0.00000  -0.33333   |   -0.53572  -0.53572   0.00000    |
 |     6    0.00000   0.00000  -0.16667   |   -0.26786  -0.26786   0.00000    |
 |     7    0.00000   0.16667  -0.00000   |    0.26786  -0.00000   0.08341    |
 |     8    0.00000   0.16667   0.16667   |    0.53572   0.26786   0.08341    |
 |     9    0.00000   0.16667   0.33333   |    0.80358   0.53572   0.08341    |
 |    10    0.00000   0.16667  -0.50000   |   -0.53572  -0.80358   0.08341    |
 |    11   -0.00000   0.16667  -0.33333   |   -0.26786  -0.53572   0.08341    |
 |    12    0.00000   0.16667  -0.16667   |    0.00000  -0.26786   0.08341    |
 |    13    0.00000   0.33333  -0.00000   |    0.53572  -0.00000   0.16681    |
 |    14    0.00000   0.33333   0.16667   |    0.80358   0.26786   0.16681    |
 |    15    0.00000   0.33333   0.33333   |    1.07144   0.53572   0.16681    |
 |    16    0.00000   0.33333  -0.50000   |   -0.26786  -0.80358   0.16681    |
 |    17    0.00000   0.33333  -0.33333   |    0.00000  -0.53572   0.16681    |
 |    18    0.00000   0.33333  -0.16667   |    0.26786  -0.26786   0.16681    |
 |    19   -0.00000  -0.50000   0.00000   |   -0.80358   0.00000  -0.25022    |
 |    20    0.00000  -0.50000   0.16667   |   -0.53572   0.26786  -0.25022    |
 |    21    0.00000  -0.50000   0.33333   |   -0.26786   0.53572  -0.25022    |
 |    22   -0.00000  -0.50000  -0.50000   |   -1.60716  -0.80358  -0.25022    |
 |    23   -0.00000  -0.50000  -0.33333   |   -1.33930  -0.53572  -0.25022    |
 |    24   -0.00000  -0.50000  -0.16667   |   -1.07144  -0.26786  -0.25022    |
 |    25   -0.00000  -0.33333   0.00000   |   -0.53572   0.00000  -0.16681    |
 |    26    0.00000  -0.33333   0.16667   |   -0.26786   0.26786  -0.16681    |
 |    27    0.00000  -0.33333   0.33333   |    0.00000   0.53572  -0.16681    |
 |    28    0.00000  -0.33333  -0.50000   |   -1.33930  -0.80358  -0.16681    |
 |    29   -0.00000  -0.33333  -0.33333   |   -1.07144  -0.53572  -0.16681    |
 |    30   -0.00000  -0.33333  -0.16667   |   -0.80358  -0.26786  -0.16681    |
 |    31   -0.00000  -0.16667   0.00000   |   -0.26786   0.00000  -0.08341    |
 |    32    0.00000  -0.16667   0.16667   |    0.00000   0.26786  -0.08341    |
 |    33   -0.00000  -0.16667   0.33333   |    0.26786   0.53572  -0.08341    |
 |    34   -0.00000  -0.16667  -0.50000   |   -1.07144  -0.80358  -0.08341    |
 |    35   -0.00000  -0.16667  -0.33333   |   -0.80358  -0.53572  -0.08341    |
 |    36   -0.00000  -0.16667  -0.16667   |   -0.53572  -0.26786  -0.08341    |
 |    37    0.16667   0.00000   0.00000   |    0.00000   0.26786   0.08341    |
 |    38    0.16667  -0.00000   0.16667   |    0.26786   0.53572   0.08341    |
 |    39    0.16667  -0.00000   0.33333   |    0.53572   0.80358   0.08341    |
 |    40    0.16667   0.00000  -0.50000   |   -0.80358  -0.53572   0.08341    |
 |    41    0.16667   0.00000  -0.33333   |   -0.53572  -0.26786   0.08341    |
 |    42    0.16667   0.00000  -0.16667   |   -0.26786   0.00000   0.08341    |
 |    43    0.16667   0.16667  -0.00000   |    0.26786   0.26786   0.16681    |
 |    44    0.16667   0.16667   0.16667   |    0.53572   0.53572   0.16681    |
 |    45    0.16667   0.16667   0.33333   |    0.80358   0.80358   0.16681    |
 |    46    0.16667   0.16667  -0.50000   |   -0.53572  -0.53572   0.16681    |
 |    47    0.16667   0.16667  -0.33333   |   -0.26786  -0.26786   0.16681    |
 |    48    0.16667   0.16667  -0.16667   |    0.00000   0.00000   0.16681    |
 |    49    0.16667   0.33333   0.00000   |    0.53572   0.26786   0.25022    |
 |    50    0.16667   0.33333   0.16667   |    0.80358   0.53572   0.25022    |
 |    51    0.16667   0.33333   0.33333   |    1.07144   0.80358   0.25022    |
 |    52    0.16667   0.33333  -0.50000   |   -0.26786  -0.53572   0.25022    |
 |    53    0.16667   0.33333  -0.33333   |    0.00000  -0.26786   0.25022    |
 |    54    0.16667   0.33333  -0.16667   |    0.26786  -0.00000   0.25022    |
 |    55    0.16667  -0.50000   0.00000   |   -0.80358   0.26786  -0.16681    |
 |    56    0.16667  -0.50000   0.16667   |   -0.53572   0.53572  -0.16681    |
 |    57    0.16667  -0.50000   0.33333   |   -0.26786   0.80358  -0.16681    |
 |    58    0.16667  -0.50000  -0.50000   |   -1.60716  -0.53572  -0.16681    |
 |    59    0.16667  -0.50000  -0.33333   |   -1.33930  -0.26786  -0.16681    |
 |    60    0.16667  -0.50000  -0.16667   |   -1.07144   0.00000  -0.16681    |
 |    61    0.16667  -0.33333   0.00000   |   -0.53572   0.26786  -0.08341    |
 |    62    0.16667  -0.33333   0.16667   |   -0.26786   0.53572  -0.08341    |
 |    63    0.16667  -0.33333   0.33333   |    0.00000   0.80358  -0.08341    |
 |    64    0.16667  -0.33333  -0.50000   |   -1.33930  -0.53572  -0.08341    |
 |    65    0.16667  -0.33333  -0.33333   |   -1.07144  -0.26786  -0.08341    |
 |    66    0.16667  -0.33333  -0.16667   |   -0.80358   0.00000  -0.08341    |
 |    67    0.16667  -0.16667   0.00000   |   -0.26786   0.26786  -0.00000    |
 |    68    0.16667  -0.16667   0.16667   |    0.00000   0.53572  -0.00000    |
 |    69    0.16667  -0.16667   0.33333   |    0.26786   0.80358  -0.00000    |
 |    70    0.16667  -0.16667  -0.50000   |   -1.07144  -0.53572   0.00000    |
 |    71    0.16667  -0.16667  -0.33333   |   -0.80358  -0.26786   0.00000    |
 |    72    0.16667  -0.16667  -0.16667   |   -0.53572   0.00000   0.00000    |
 |    73    0.33333   0.00000   0.00000   |    0.00000   0.53572   0.16681    |
 |    74    0.33333   0.00000   0.16667   |    0.26786   0.80358   0.16681    |
 |    75    0.33333  -0.00000   0.33333   |    0.53572   1.07144   0.16681    |
 |    76    0.33333   0.00000  -0.50000   |   -0.80358  -0.26786   0.16681    |
 |    77    0.33333   0.00000  -0.33333   |   -0.53572   0.00000   0.16681    |
 |    78    0.33333   0.00000  -0.16667   |   -0.26786   0.26786   0.16681    |
 |    79    0.33333   0.16667   0.00000   |    0.26786   0.53572   0.25022    |
 |    80    0.33333   0.16667   0.16667   |    0.53572   0.80358   0.25022    |
 |    81    0.33333   0.16667   0.33333   |    0.80358   1.07144   0.25022    |
 |    82    0.33333   0.16667  -0.50000   |   -0.53572  -0.26786   0.25022    |
 |    83    0.33333   0.16667  -0.33333   |   -0.26786   0.00000   0.25022    |
 |    84    0.33333   0.16667  -0.16667   |    0.00000   0.26786   0.25022    |
 |    85    0.33333   0.33333  -0.00000   |    0.53572   0.53572   0.33362    |
 |    86    0.33333   0.33333   0.16667   |    0.80358   0.80358   0.33362    |
 |    87    0.33333   0.33333   0.33333   |    1.07144   1.07144   0.33362    |
 |    88    0.33333   0.33333  -0.50000   |   -0.26786  -0.26786   0.33362    |
 |    89    0.33333   0.33333  -0.33333   |    0.00000   0.00000   0.33362    |
 |    90    0.33333   0.33333  -0.16667   |    0.26786   0.26786   0.33362    |
 |    91    0.33333  -0.50000   0.00000   |   -0.80358   0.53572  -0.08341    |
 |    92    0.33333  -0.50000   0.16667   |   -0.53572   0.80358  -0.08341    |
 |    93    0.33333  -0.50000   0.33333   |   -0.26786   1.07144  -0.08341    |
 |    94    0.33333  -0.50000  -0.50000   |   -1.60716  -0.26786  -0.08341    |
 |    95    0.33333  -0.50000  -0.33333   |   -1.33930   0.00000  -0.08341    |
 |    96    0.33333  -0.50000  -0.16667   |   -1.07144   0.26786  -0.08341    |
 |    97    0.33333  -0.33333   0.00000   |   -0.53572   0.53572  -0.00000    |
 |    98    0.33333  -0.33333   0.16667   |   -0.26786   0.80358  -0.00000    |
 |    99    0.33333  -0.33333   0.33333   |    0.00000   1.07144  -0.00000    |
 |   100    0.33333  -0.33333  -0.50000   |   -1.33930  -0.26786   0.00000    |
 |   101    0.33333  -0.33333  -0.33333   |   -1.07144   0.00000   0.00000    |
 |   102    0.33333  -0.33333  -0.16667   |   -0.80358   0.26786   0.00000    |
 |   103    0.33333  -0.16667   0.00000   |   -0.26786   0.53572   0.08341    |
 |   104    0.33333  -0.16667   0.16667   |    0.00000   0.80358   0.08341    |
 |   105    0.33333  -0.16667   0.33333   |    0.26786   1.07144   0.08341    |
 |   106    0.33333  -0.16667  -0.50000   |   -1.07144  -0.26786   0.08341    |
 |   107    0.33333  -0.16667  -0.33333   |   -0.80358   0.00000   0.08341    |
 |   108    0.33333  -0.16667  -0.16667   |   -0.53572   0.26786   0.08341    |
 |   109   -0.50000   0.00000   0.00000   |    0.00000  -0.80358  -0.25022    |
 |   110   -0.50000   0.00000   0.16667   |    0.26786  -0.53572  -0.25022    |
 |   111   -0.50000   0.00000   0.33333   |    0.53572  -0.26786  -0.25022    |
 |   112   -0.50000   0.00000  -0.50000   |   -0.80358  -1.60716  -0.25022    |
 |   113   -0.50000   0.00000  -0.33333   |   -0.53572  -1.33930  -0.25022    |
 |   114   -0.50000   0.00000  -0.16667   |   -0.26786  -1.07144  -0.25022    |
 |   115   -0.50000   0.16667  -0.00000   |    0.26786  -0.80358  -0.16681    |
 |   116   -0.50000   0.16667   0.16667   |    0.53572  -0.53572  -0.16681    |
 |   117   -0.50000   0.16667   0.33333   |    0.80358  -0.26786  -0.16681    |
 |   118   -0.50000   0.16667  -0.50000   |   -0.53572  -1.60716  -0.16681    |
 |   119   -0.50000   0.16667  -0.33333   |   -0.26786  -1.33930  -0.16681    |
 |   120   -0.50000   0.16667  -0.16667   |    0.00000  -1.07144  -0.16681    |
 |   121   -0.50000   0.33333  -0.00000   |    0.53572  -0.80358  -0.08341    |
 |   122   -0.50000   0.33333   0.16667   |    0.80358  -0.53572  -0.08341    |
 |   123   -0.50000   0.33333   0.33333   |    1.07144  -0.26786  -0.08341    |
 |   124   -0.50000   0.33333  -0.50000   |   -0.26786  -1.60716  -0.08341    |
 |   125   -0.50000   0.33333  -0.33333   |    0.00000  -1.33930  -0.08341    |
 |   126   -0.50000   0.33333  -0.16667   |    0.26786  -1.07144  -0.08341    |
 |   127   -0.50000  -0.50000   0.00000   |   -0.80358  -0.80358  -0.50044    |
 |   128   -0.50000  -0.50000   0.16667   |   -0.53572  -0.53572  -0.50044    |
 |   129   -0.50000  -0.50000   0.33333   |   -0.26786  -0.26786  -0.50044    |
 |   130   -0.50000  -0.50000  -0.50000   |   -1.60716  -1.60716  -0.50044    |
 |   131   -0.50000  -0.50000  -0.33333   |   -1.33930  -1.33930  -0.50044    |
 |   132   -0.50000  -0.50000  -0.16667   |   -1.07144  -1.07144  -0.50044    |
 |   133   -0.50000  -0.33333   0.00000   |   -0.53572  -0.80358  -0.41703    |
 |   134   -0.50000  -0.33333   0.16667   |   -0.26786  -0.53572  -0.41703    |
 |   135   -0.50000  -0.33333   0.33333   |    0.00000  -0.26786  -0.41703    |
 |   136   -0.50000  -0.33333  -0.50000   |   -1.33930  -1.60716  -0.41703    |
 |   137   -0.50000  -0.33333  -0.33333   |   -1.07144  -1.33930  -0.41703    |
 |   138   -0.50000  -0.33333  -0.16667   |   -0.80358  -1.07144  -0.41703    |
 |   139   -0.50000  -0.16667   0.00000   |   -0.26786  -0.80358  -0.33362    |
 |   140   -0.50000  -0.16667   0.16667   |    0.00000  -0.53572  -0.33362    |
 |   141   -0.50000  -0.16667   0.33333   |    0.26786  -0.26786  -0.33362    |
 |   142   -0.50000  -0.16667  -0.50000   |   -1.07144  -1.60716  -0.33362    |
 |   143   -0.50000  -0.16667  -0.33333   |   -0.80358  -1.33930  -0.33362    |
 |   144   -0.50000  -0.16667  -0.16667   |   -0.53572  -1.07144  -0.33362    |
 |   145   -0.33333   0.00000   0.00000   |    0.00000  -0.53572  -0.16681    |
 |   146   -0.33333   0.00000   0.16667   |    0.26786  -0.26786  -0.16681    |
 |   147   -0.33333  -0.00000   0.33333   |    0.53572  -0.00000  -0.16681    |
 |   148   -0.33333   0.00000  -0.50000   |   -0.80358  -1.33930  -0.16681    |
 |   149   -0.33333   0.00000  -0.33333   |   -0.53572  -1.07144  -0.16681    |
 |   150   -0.33333   0.00000  -0.16667   |   -0.26786  -0.80358  -0.16681    |
 |   151   -0.33333   0.16667  -0.00000   |    0.26786  -0.53572  -0.08341    |
 |   152   -0.33333   0.16667   0.16667   |    0.53572  -0.26786  -0.08341    |
 |   153   -0.33333   0.16667   0.33333   |    0.80358  -0.00000  -0.08341    |
 |   154   -0.33333   0.16667  -0.50000   |   -0.53572  -1.33930  -0.08341    |
 |   155   -0.33333   0.16667  -0.33333   |   -0.26786  -1.07144  -0.08341    |
 |   156   -0.33333   0.16667  -0.16667   |    0.00000  -0.80358  -0.08341    |
 |   157   -0.33333   0.33333  -0.00000   |    0.53572  -0.53572   0.00000    |
 |   158   -0.33333   0.33333   0.16667   |    0.80358  -0.26786  -0.00000    |
 |   159   -0.33333   0.33333   0.33333   |    1.07144  -0.00000  -0.00000    |
 |   160   -0.33333   0.33333  -0.50000   |   -0.26786  -1.33930   0.00000    |
 |   161   -0.33333   0.33333  -0.33333   |    0.00000  -1.07144   0.00000    |
 |   162   -0.33333   0.33333  -0.16667   |    0.26786  -0.80358   0.00000    |
 |   163   -0.33333  -0.50000  -0.00000   |   -0.80358  -0.53572  -0.41703    |
 |   164   -0.33333  -0.50000   0.16667   |   -0.53572  -0.26786  -0.41703    |
 |   165   -0.33333  -0.50000   0.33333   |   -0.26786   0.00000  -0.41703    |
 |   166   -0.33333  -0.50000  -0.50000   |   -1.60716  -1.33930  -0.41703    |
 |   167   -0.33333  -0.50000  -0.33333   |   -1.33930  -1.07144  -0.41703    |
 |   168   -0.33333  -0.50000  -0.16667   |   -1.07144  -0.80358  -0.41703    |
 |   169   -0.33333  -0.33333   0.00000   |   -0.53572  -0.53572  -0.33362    |
 |   170   -0.33333  -0.33333   0.16667   |   -0.26786  -0.26786  -0.33362    |
 |   171   -0.33333  -0.33333   0.33333   |    0.00000   0.00000  -0.33362    |
 |   172   -0.33333  -0.33333  -0.50000   |   -1.33930  -1.33930  -0.33362    |
 |   173   -0.33333  -0.33333  -0.33333   |   -1.07144  -1.07144  -0.33362    |
 |   174   -0.33333  -0.33333  -0.16667   |   -0.80358  -0.80358  -0.33362    |
 |   175   -0.33333  -0.16667  -0.00000   |   -0.26786  -0.53572  -0.25022    |
 |   176   -0.33333  -0.16667   0.16667   |    0.00000  -0.26786  -0.25022    |
 |   177   -0.33333  -0.16667   0.33333   |    0.26786  -0.00000  -0.25022    |
 |   178   -0.33333  -0.16667  -0.50000   |   -1.07144  -1.33930  -0.25022    |
 |   179   -0.33333  -0.16667  -0.33333   |   -0.80358  -1.07144  -0.25022    |
 |   180   -0.33333  -0.16667  -0.16667   |   -0.53572  -0.80358  -0.25022    |
 |   181   -0.16667   0.00000   0.00000   |    0.00000  -0.26786  -0.08341    |
 |   182   -0.16667  -0.00000   0.16667   |    0.26786  -0.00000  -0.08341    |
 |   183   -0.16667  -0.00000   0.33333   |    0.53572   0.26786  -0.08341    |
 |   184   -0.16667  -0.00000  -0.50000   |   -0.80358  -1.07144  -0.08341    |
 |   185   -0.16667   0.00000  -0.33333   |   -0.53572  -0.80358  -0.08341    |
 |   186   -0.16667   0.00000  -0.16667   |   -0.26786  -0.53572  -0.08341    |
 |   187   -0.16667   0.16667  -0.00000   |    0.26786  -0.26786   0.00000    |
 |   188   -0.16667   0.16667   0.16667   |    0.53572  -0.00000  -0.00000    |
 |   189   -0.16667   0.16667   0.33333   |    0.80358   0.26786  -0.00000    |
 |   190   -0.16667   0.16667  -0.50000   |   -0.53572  -1.07144   0.00000    |
 |   191   -0.16667   0.16667  -0.33333   |   -0.26786  -0.80358   0.00000    |
 |   192   -0.16667   0.16667  -0.16667   |    0.00000  -0.53572   0.00000    |
 |   193   -0.16667   0.33333  -0.00000   |    0.53572  -0.26786   0.08341    |
 |   194   -0.16667   0.33333   0.16667   |    0.80358  -0.00000   0.08341    |
 |   195   -0.16667   0.33333   0.33333   |    1.07144   0.26786   0.08341    |
 |   196   -0.16667   0.33333  -0.50000   |   -0.26786  -1.07144   0.08341    |
 |   197   -0.16667   0.33333  -0.33333   |    0.00000  -0.80358   0.08341    |
 |   198   -0.16667   0.33333  -0.16667   |    0.26786  -0.53572   0.08341    |
 |   199   -0.16667  -0.50000   0.00000   |   -0.80358  -0.26786  -0.33362    |
 |   200   -0.16667  -0.50000   0.16667   |   -0.53572   0.00000  -0.33362    |
 |   201   -0.16667  -0.50000   0.33333   |   -0.26786   0.26786  -0.33362    |
 |   202   -0.16667  -0.50000  -0.50000   |   -1.60716  -1.07144  -0.33362    |
 |   203   -0.16667  -0.50000  -0.33333   |   -1.33930  -0.80358  -0.33362    |
 |   204   -0.16667  -0.50000  -0.16667   |   -1.07144  -0.53572  -0.33362    |
 |   205   -0.16667  -0.33333   0.00000   |   -0.53572  -0.26786  -0.25022    |
 |   206   -0.16667  -0.33333   0.16667   |   -0.26786   0.00000  -0.25022    |
 |   207   -0.16667  -0.33333   0.33333   |    0.00000   0.26786  -0.25022    |
 |   208   -0.16667  -0.33333  -0.50000   |   -1.33930  -1.07144  -0.25022    |
 |   209   -0.16667  -0.33333  -0.33333   |   -1.07144  -0.80358  -0.25022    |
 |   210   -0.16667  -0.33333  -0.16667   |   -0.80358  -0.53572  -0.25022    |
 |   211   -0.16667  -0.16667   0.00000   |   -0.26786  -0.26786  -0.16681    |
 |   212   -0.16667  -0.16667   0.16667   |    0.00000   0.00000  -0.16681    |
 |   213   -0.16667  -0.16667   0.33333   |    0.26786   0.26786  -0.16681    |
 |   214   -0.16667  -0.16667  -0.50000   |   -1.07144  -1.07144  -0.16681    |
 |   215   -0.16667  -0.16667  -0.33333   |   -0.80358  -0.80358  -0.16681    |
 |   216   -0.16667  -0.16667  -0.16667   |   -0.53572  -0.53572  -0.16681    |
 *----------------------------------------------------------------------------*
  
  
 *---------------------------------- MAIN ------------------------------------*
 |  Number of Wannier Functions               :                 5             |
 |  Number of Objective Wannier Functions     :                 5             |
 |  Number of input Bloch states              :                10             |
 |  Output verbosity (1=low, 5=high)          :                 2             |
 |  Timing Level (1=low, 5=high)              :                 1             |
 |  Optimisation (0=memory, 3=speed)          :                 3             |
 |  Length Unit                               :               Ang             |
 |  Post-processing setup (write *.nnkp)      :                 F             |
 |  Using Gamma-only branch of algorithms     :                 F             |
 *----------------------------------------------------------------------------*
 *------------------------------- WANNIERISE ---------------------------------*
 |  Total number of iterations                :              5000             |
 |  Number of CG steps before reset           :                 5             |
 |  Trial step length for line search         :             2.000             |
 |  Convergence tolerence                     :         0.100E-11             |
 |  Convergence window                        :                -1             |
 |  Iterations between writing output         :                 1             |
 |  Iterations between backing up to disk     :               100             |
 |  Write r^2_nm to file                      :                 F             |
 |  Write xyz WF centres to file              :                 F             |
 |  Write on-site energies <0n|H|0n> to file  :                 F             |
 |  Use guiding centre to control phases      :                 F             |
 |  Use phases for initial projections        :                 F             |
 *----------------------------------------------------------------------------*
 *------------------------------- DISENTANGLE --------------------------------*
 |  Using band disentanglement                :                 T             |
 |  Total number of iterations                :              1000             |
 |  Mixing ratio                              :             0.500             |
 |  Convergence tolerence                     :         1.000E-12             |
 |  Convergence window                        :                 3             |
 *----------------------------------------------------------------------------*
 *-------------------------------- PLOTTING ----------------------------------*
 |  Plotting interpolated bandstructure       :                 T             |
 |   Number of K-path sections                :                 4             |
 |   Divisions along first K-path section     :               100             |
 |   Output format                            :           gnuplot             |
 |   Output mode                              :               s-k             |
 *----------------------------------------------------------------------------*
 |   K-space path sections:                                                   |
 |    From: G       0.000  0.000  0.000     To: N       0.000  0.500  0.000   |
 |    From: N       0.000  0.500  0.000     To: X       0.000  0.000  0.500   |
 |    From: X       0.000  0.000  0.500     To: G       0.000  0.000  0.000   |
 |    From: G       0.000  0.000  0.000     To: M       0.250  0.250 -0.250   |
 *----------------------------------------------------------------------------*
 |  Plotting Hamiltonian in WF basis          :                 T             |
 *----------------------------------------------------------------------------*
 Time to read parameters        0.033 (sec)

 *---------------------------------- K-MESH ----------------------------------*
 +----------------------------------------------------------------------------+
 |                    Distance to Nearest-Neighbour Shells                    |
 |                    ------------------------------------                    |
 |          Shell             Distance (Ang^-1)          Multiplicity         |
 |          -----             -----------------          ------------         |
 |             1                   0.166812                      2            |
 |             2                   0.280545                      8            |
 |             3                   0.333624                      2            |
 |             4                   0.366549                      8            |
 |             5                   0.378812                      4            |
 |             6                   0.413914                      8            |
 |             7                   0.495644                      8            |
 |             8                   0.500436                      2            |
 |             9                   0.504780                      8            |
 |            10                   0.535721                      4            |
 |            11                   0.561091                      8            |
 |            12                   0.604733                     16            |
 |            13                   0.627642                      8            |
 |            14                   0.631111                      8            |
 |            15                   0.642355                      8            |
 |            16                   0.649119                     16            |
 |            17                   0.667248                      2            |
 |            18                   0.729835                     16            |
 |            19                   0.733098                      8            |
 |            20                   0.757623                      4            |
 |            21                   0.767279                      8            |
 |            22                   0.775770                      8            |
 |            23                   0.797013                      8            |
 |            24                   0.807898                      8            |
 |            25                   0.827828                      8            |
 |            26                   0.834059                      2            |
 |            27                   0.836431                     16            |
 |            28                   0.841636                      8            |
 |            29                   0.847049                      8            |
 |            30                   0.855696                      8            |
 |            31                   0.863318                     16            |
 |            32                   0.905349                      8            |
 |            33                   0.907981                      8            |
 |            34                   0.910383                     16            |
 |            35                   0.916053                      8            |
 |            36                   0.955768                      8            |
 +----------------------------------------------------------------------------+
 | The b-vectors are chosen automatically                                     |
 | Shell:  1 w_b   17.9686655      (Ang^2)                                    |
 | Shell:  1 w_b   14.4843067      (Ang^2)                                    |
 | Shell:  2 w_b    3.4843588      (Ang^2)                                    |
 | The following shells are used:   1,  2                                     |
 +----------------------------------------------------------------------------+
 |                        Shell   # Nearest-Neighbours                        |
 |                        -----   --------------------                        |
 |                          1               2                                 |
 |                          2               8                                 |
 +----------------------------------------------------------------------------+
 | Completeness relation is fully satisfied [Eq. (B1), PRB 56, 12847 (1997)]  |
 +----------------------------------------------------------------------------+
 |                  b_k Vectors (Ang^-1) and Weights (Ang^2)                  |
 |                  ----------------------------------------                  |
 |            No.         b_k(x)      b_k(y)      b_k(z)        w_b           |
 |            ---        --------------------------------     --------        |
 |             1         0.000000    0.000000    0.166812    14.484307        |
 |             2         0.000000    0.000000   -0.166812    14.484307        |
 |             3         0.267860   -0.000000    0.083406     3.484359        |
 |             4         0.000000   -0.267860    0.083406     3.484359        |
 |             5        -0.267860    0.000000   -0.083406     3.484359        |
 |             6         0.000000    0.267860   -0.083406     3.484359        |
 |             7         0.000000    0.267860    0.083406     3.484359        |
 |             8        -0.267860    0.000000    0.083406     3.484359        |
 |             9         0.000000   -0.267860   -0.083406     3.484359        |
 |            10         0.267860   -0.000000   -0.083406     3.484359        |
 +----------------------------------------------------------------------------+
 |                           b_k Directions (Ang^-1)                          |
 |                           -----------------------                          |
 |            No.           x           y           z                         |
 |            ---        --------------------------------                     |
 |             1         0.000000    0.000000    0.166812                     |
 |             2         0.267860   -0.000000    0.083406                     |
 |             3         0.000000   -0.267860    0.083406                     |
 |             4         0.000000    0.267860    0.083406                     |
 |             5        -0.267860    0.000000    0.083406                     |
 +----------------------------------------------------------------------------+
  
 Time to get kmesh              0.775 (sec)
 *============================================================================*
 |                              MEMORY ESTIMATE                               |
 |         Maximum RAM allocated during each phase of the calculation         |
 *============================================================================*
 |                        Disentanglement            4.68 Mb                  |
 |                            Wannierise:            2.67 Mb                  |
 |                                                                            |
 |   N.B. by setting optimisation=0 memory usage will be reduced to:          |
 |                        Disentanglement            4.52 Mb                  |
 |                            Wannierise:            1.85 Mb                  |
 |   However, this will result in more i/o and slow down the calculation      |
 |                          plot_wannier:            2.67 Mb                  |
 *----------------------------------------------------------------------------*
  
 Starting a new Wannier90 calculation ...


 Reading overlaps from sfo.2.mmn    :  Created on  2Feb2024 at 17:46:10

 Reading projections from sfo.2.amn :  Created on  2Feb2024 at 17:46: 3

 Time to read overlaps          0.382 (sec)

 *------------------------------- DISENTANGLE --------------------------------*
 +----------------------------------------------------------------------------+
 |                              Energy  Windows                               |
 |                              ---------------                               |
 |                   Outer:    2.00000  to   15.50000  (eV)                   |
 |                   Inner:    8.60000  to   12.50000  (eV)                   |
 +----------------------------------------------------------------------------+
 |                        K-points with Frozen States                         |
 |                        ---------------------------                         |
 |     1     2     3     4     5     6     7     8     9    10    11    12    |
 |    13    14    15    16    17    18    19    20    21    22    23    24    |
 |    25    26    27    28    29    30    31    32    33    34    35    36    |
 |    37    38    39    40    41    42    43    44    45    46    47    48    |
 |    49    50    51    52    53    54    55    56    57    58    59    60    |
 |    61    62    63    64    65    66    67    68    69    70    71    72    |
 |    73    74    75    76    77    78    79    80    81    82    83    84    |
 |    85    86    87    88    89    90    91    92    93    94    95    96    |
 |    97    98    99   100   101   102   103   104   105   106   107   108    |
 |   109   110   111   112   113   114   115   116   117   118   119   120    |
 |   121   122   123   124   125   126   127   128   129   130   131   132    |
 |   133   134   135   136   137   138   139   140   141   142   143   144    |
 |   145   146   147   148   149   150   151   152   153   154   155   156    |
 |   157   158   159   160   161   162   163   164   165   166   167   168    |
 |   169   170   171   172   173   174   175   176   177   178   179   180    |
 |   181   182   183   184   185   186   187   188   189   190   191   192    |
 |   193   194   195   196   197   198   199   200   201   202   203   204    |
 |   205   206   207   208   209   210   211   212   213   214   215   216    |
 +----------------------------------------------------------------------------+
   Number of target bands to extract:    5
 +----------------------------------------------------------------------------+
 |                                  Windows                                   |
 |                                  -------                                   |
 |               K-point      Ndimwin     Ndimfroz    Nfirstwin               |
 |               ----------------------------------------------               |
 |                   1           10            4           1                  |
 |                   2           10            4           1                  |
 |                   3           10            5           1                  |
 |                   4           10            4           1                  |
 |                   5           10            5           1                  |
 |                   6           10            4           1                  |
 |                   7           10            4           1                  |
 |                   8           10            5           1                  |
 |                   9           10            5           1                  |
 |                  10           10            5           1                  |
 |                  11           10            5           1                  |
 |                  12           10            4           1                  |
 |                  13           10            5           1                  |
 |                  14           10            5           1                  |
 |                  15           10            5           1                  |
 |                  16           10            5           1                  |
 |                  17           10            5           1                  |
 |                  18           10            4           1                  |
 |                  19           10            5           1                  |
 |                  20           10            5           1                  |
 |                  21           10            5           1                  |
 |                  22           10            5           1                  |
 |                  23           10            5           1                  |
 |                  24           10            5           1                  |
 |                  25           10            5           1                  |
 |                  26           10            4           1                  |
 |                  27           10            5           1                  |
 |                  28           10            5           1                  |
 |                  29           10            5           1                  |
 |                  30           10            5           1                  |
 |                  31           10            4           1                  |
 |                  32           10            4           1                  |
 |                  33           10            5           1                  |
 |                  34           10            5           1                  |
 |                  35           10            5           1                  |
 |                  36           10            5           1                  |
 |                  37           10            4           1                  |
 |                  38           10            5           1                  |
 |                  39           10            5           1                  |
 |                  40           10            5           1                  |
 |                  41           10            5           1                  |
 |                  42           10            4           1                  |
 |                  43           10            4           1                  |
 |                  44           10            5           1                  |
 |                  45           10            4           1                  |
 |                  46           10            5           1                  |
 |                  47           10            4           1                  |
 |                  48           10            4           1                  |
 |                  49           10            5           1                  |
 |                  50           10            5           1                  |
 |                  51           10            5           1                  |
 |                  52           10            5           1                  |
 |                  53           10            4           1                  |
 |                  54           10            4           1                  |
 |                  55           10            5           1                  |
 |                  56           10            5           1                  |
 |                  57           10            5           1                  |
 |                  58           10            5           1                  |
 |                  59           10            4           1                  |
 |                  60           10            5           1                  |
 |                  61           10            5           1                  |
 |                  62           10            5           1                  |
 |                  63           10            5           1                  |
 |                  64           10            5           1                  |
 |                  65           10            5           1                  |
 |                  66           10            5           1                  |
 |                  67           10            4           1                  |
 |                  68           10            5           1                  |
 |                  69           10            5           1                  |
 |                  70           10            5           1                  |
 |                  71           10            5           1                  |
 |                  72           10            5           1                  |
 |                  73           10            5           1                  |
 |                  74           10            5           1                  |
 |                  75           10            5           1                  |
 |                  76           10            5           1                  |
 |                  77           10            5           1                  |
 |                  78           10            4           1                  |
 |                  79           10            5           1                  |
 |                  80           10            5           1                  |
 |                  81           10            5           1                  |
 |                  82           10            5           1                  |
 |                  83           10            4           1                  |
 |                  84           10            4           1                  |
 |                  85           10            5           1                  |
 |                  86           10            4           1                  |
 |                  87           10            5           1                  |
 |                  88           10            4           1                  |
 |                  89           10            4           1                  |
 |                  90           10            4           1                  |
 |                  91           10            5           1                  |
 |                  92           10            5           1                  |
 |                  93           10            5           1                  |
 |                  94           10            4           1                  |
 |                  95           10            4           1                  |
 |                  96           10            5           1                  |
 |                  97           10            5           1                  |
 |                  98           10            5           1                  |
 |                  99           10            5           1                  |
 |                 100           10            4           1                  |
 |                 101           10            5           1                  |
 |                 102           10            5           1                  |
 |                 103           10            5           1                  |
 |                 104           10            5           1                  |
 |                 105           10            5           1                  |
 |                 106           10            5           1                  |
 |                 107           10            5           1                  |
 |                 108           10            5           1                  |
 |                 109           10            5           1                  |
 |                 110           10            5           1                  |
 |                 111           10            5           1                  |
 |                 112           10            5           1                  |
 |                 113           10            5           1                  |
 |                 114           10            5           1                  |
 |                 115           10            5           1                  |
 |                 116           10            5           1                  |
 |                 117           10            5           1                  |
 |                 118           10            5           1                  |
 |                 119           10            4           1                  |
 |                 120           10            5           1                  |
 |                 121           10            5           1                  |
 |                 122           10            5           1                  |
 |                 123           10            5           1                  |
 |                 124           10            4           1                  |
 |                 125           10            4           1                  |
 |                 126           10            5           1                  |
 |                 127           10            4           1                  |
 |                 128           10            5           1                  |
 |                 129           10            4           1                  |
 |                 130           10            4           1                  |
 |                 131           10            4           1                  |
 |                 132           10            5           1                  |
 |                 133           10            5           1                  |
 |                 134           10            5           1                  |
 |                 135           10            4           1                  |
 |                 136           10            4           1                  |
 |                 137           10            5           1                  |
 |                 138           10            5           1                  |
 |                 139           10            5           1                  |
 |                 140           10            5           1                  |
 |                 141           10            4           1                  |
 |                 142           10            5           1                  |
 |                 143           10            5           1                  |
 |                 144           10            5           1                  |
 |                 145           10            5           1                  |
 |                 146           10            4           1                  |
 |                 147           10            5           1                  |
 |                 148           10            5           1                  |
 |                 149           10            5           1                  |
 |                 150           10            5           1                  |
 |                 151           10            5           1                  |
 |                 152           10            5           1                  |
 |                 153           10            5           1                  |
 |                 154           10            5           1                  |
 |                 155           10            5           1                  |
 |                 156           10            5           1                  |
 |                 157           10            5           1                  |
 |                 158           10            5           1                  |
 |                 159           10            5           1                  |
 |                 160           10            4           1                  |
 |                 161           10            5           1                  |
 |                 162           10            5           1                  |
 |                 163           10            5           1                  |
 |                 164           10            5           1                  |
 |                 165           10            4           1                  |
 |                 166           10            4           1                  |
 |                 167           10            5           1                  |
 |                 168           10            5           1                  |
 |                 169           10            5           1                  |
 |                 170           10            4           1                  |
 |                 171           10            4           1                  |
 |                 172           10            4           1                  |
 |                 173           10            5           1                  |
 |                 174           10            4           1                  |
 |                 175           10            5           1                  |
 |                 176           10            4           1                  |
 |                 177           10            4           1                  |
 |                 178           10            5           1                  |
 |                 179           10            5           1                  |
 |                 180           10            5           1                  |
 |                 181           10            4           1                  |
 |                 182           10            4           1                  |
 |                 183           10            5           1                  |
 |                 184           10            5           1                  |
 |                 185           10            5           1                  |
 |                 186           10            5           1                  |
 |                 187           10            4           1                  |
 |                 188           10            5           1                  |
 |                 189           10            5           1                  |
 |                 190           10            5           1                  |
 |                 191           10            5           1                  |
 |                 192           10            5           1                  |
 |                 193           10            5           1                  |
 |                 194           10            5           1                  |
 |                 195           10            5           1                  |
 |                 196           10            5           1                  |
 |                 197           10            5           1                  |
 |                 198           10            5           1                  |
 |                 199           10            5           1                  |
 |                 200           10            5           1                  |
 |                 201           10            4           1                  |
 |                 202           10            5           1                  |
 |                 203           10            5           1                  |
 |                 204           10            5           1                  |
 |                 205           10            5           1                  |
 |                 206           10            4           1                  |
 |                 207           10            4           1                  |
 |                 208           10            5           1                  |
 |                 209           10            5           1                  |
 |                 210           10            5           1                  |
 |                 211           10            4           1                  |
 |                 212           10            4           1                  |
 |                 213           10            4           1                  |
 |                 214           10            5           1                  |
 |                 215           10            4           1                  |
 |                 216           10            5           1                  |
 +----------------------------------------------------------------------------+

                   Unitarised projection of Wannier functions                  
                   ------------------------------------------                  
   A_mn = <psi_m|g_n> --> S = A.A^+ --> U = S^-1/2.A
   In dis_project... done
   Using an inner window (linner = T)
   In dis_proj_froz... done

                   Extraction of optimally-connected subspace                  
                   ------------------------------------------                  
 +---------------------------------------------------------------------+<-- DIS
 |  Iter     Omega_I(i-1)      Omega_I(i)      Delta (frac.)    Time   |<-- DIS
 +---------------------------------------------------------------------+<-- DIS
       1      14.19764308      14.14676755       3.596E-03      0.00    <-- DIS
       2      14.15884692      14.13886030       1.414E-03      0.01    <-- DIS
       3      14.14618480      14.13453821       8.240E-04      0.01    <-- DIS
       4      14.13857291      14.13204701       4.618E-04      0.02    <-- DIS
       5      14.13406289      14.13053470       2.497E-04      0.02    <-- DIS
       6      14.13140176      14.12957270       1.294E-04      0.03    <-- DIS
       7      14.12982602      14.12893642       6.296E-05      0.04    <-- DIS
       8      14.12888430      14.12850261       2.702E-05      0.05    <-- DIS
       9      14.12831402      14.12820013       8.061E-06      0.05    <-- DIS
      10      14.12796344      14.12798585      -1.586E-06      0.06    <-- DIS
      11      14.12774473      14.12783236      -6.203E-06      0.06    <-- DIS
      12      14.12760665      14.12772161      -8.137E-06      0.07    <-- DIS
      13      14.12751886      14.12764128      -8.666E-06      0.08    <-- DIS
      14      14.12746308      14.12758284      -8.477E-06      0.08    <-- DIS
      15      14.12742800      14.12754022      -7.943E-06      0.09    <-- DIS
      16      14.12740651      14.12750910      -7.261E-06      0.09    <-- DIS
      17      14.12739399      14.12748635      -6.537E-06      0.10    <-- DIS
      18      14.12738741      14.12746971      -5.825E-06      0.11    <-- DIS
      19      14.12738472      14.12745753      -5.154E-06      0.11    <-- DIS
      20      14.12738455      14.12744862      -4.535E-06      0.12    <-- DIS
      21      14.12738595      14.12744209      -3.974E-06      0.12    <-- DIS
      22      14.12738829      14.12743731      -3.470E-06      0.13    <-- DIS
      23      14.12739112      14.12743381      -3.022E-06      0.14    <-- DIS
      24      14.12739416      14.12743125      -2.626E-06      0.14    <-- DIS
      25      14.12739721      14.12742938      -2.277E-06      0.15    <-- DIS
      26      14.12740016      14.12742800      -1.971E-06      0.16    <-- DIS
      27      14.12740293      14.12742700      -1.703E-06      0.16    <-- DIS
      28      14.12740549      14.12742626      -1.470E-06      0.17    <-- DIS
      29      14.12740781      14.12742572      -1.268E-06      0.17    <-- DIS
      30      14.12740990      14.12742533      -1.092E-06      0.18    <-- DIS
      31      14.12741176      14.12742504      -9.398E-07      0.19    <-- DIS
      32      14.12741341      14.12742482      -8.082E-07      0.19    <-- DIS
      33      14.12741486      14.12742467      -6.945E-07      0.20    <-- DIS
      34      14.12741613      14.12742455      -5.966E-07      0.20    <-- DIS
      35      14.12741724      14.12742447      -5.121E-07      0.21    <-- DIS
      36      14.12741820      14.12742441      -4.395E-07      0.22    <-- DIS
      37      14.12741904      14.12742437      -3.770E-07      0.22    <-- DIS
      38      14.12741977      14.12742433      -3.233E-07      0.23    <-- DIS
      39      14.12742039      14.12742431      -2.772E-07      0.23    <-- DIS
      40      14.12742094      14.12742429      -2.376E-07      0.24    <-- DIS
      41      14.12742140      14.12742428      -2.036E-07      0.25    <-- DIS
      42      14.12742181      14.12742427      -1.744E-07      0.25    <-- DIS
      43      14.12742215      14.12742426      -1.494E-07      0.26    <-- DIS
      44      14.12742245      14.12742426      -1.280E-07      0.26    <-- DIS
      45      14.12742271      14.12742425      -1.096E-07      0.27    <-- DIS
      46      14.12742293      14.12742425      -9.384E-08      0.28    <-- DIS
      47      14.12742311      14.12742425      -8.035E-08      0.28    <-- DIS
      48      14.12742328      14.12742425      -6.879E-08      0.29    <-- DIS
      49      14.12742341      14.12742425      -5.890E-08      0.29    <-- DIS
      50      14.12742353      14.12742425      -5.042E-08      0.30    <-- DIS
      51      14.12742364      14.12742425      -4.316E-08      0.31    <-- DIS
      52      14.12742372      14.12742425      -3.695E-08      0.31    <-- DIS
      53      14.12742380      14.12742424      -3.162E-08      0.32    <-- DIS
      54      14.12742386      14.12742424      -2.707E-08      0.32    <-- DIS
      55      14.12742392      14.12742424      -2.317E-08      0.33    <-- DIS
      56      14.12742396      14.12742424      -1.983E-08      0.34    <-- DIS
      57      14.12742400      14.12742424      -1.697E-08      0.34    <-- DIS
      58      14.12742404      14.12742424      -1.453E-08      0.35    <-- DIS
      59      14.12742407      14.12742424      -1.243E-08      0.35    <-- DIS
      60      14.12742409      14.12742424      -1.064E-08      0.36    <-- DIS
      61      14.12742412      14.12742424      -9.106E-09      0.37    <-- DIS
      62      14.12742413      14.12742424      -7.793E-09      0.37    <-- DIS
      63      14.12742415      14.12742424      -6.669E-09      0.38    <-- DIS
      64      14.12742416      14.12742424      -5.708E-09      0.38    <-- DIS
      65      14.12742417      14.12742424      -4.885E-09      0.39    <-- DIS
      66      14.12742418      14.12742424      -4.180E-09      0.40    <-- DIS
      67      14.12742419      14.12742424      -3.578E-09      0.40    <-- DIS
      68      14.12742420      14.12742424      -3.062E-09      0.41    <-- DIS
      69      14.12742421      14.12742424      -2.620E-09      0.42    <-- DIS
      70      14.12742421      14.12742424      -2.242E-09      0.42    <-- DIS
      71      14.12742422      14.12742424      -1.919E-09      0.43    <-- DIS
      72      14.12742422      14.12742424      -1.642E-09      0.43    <-- DIS
      73      14.12742422      14.12742424      -1.405E-09      0.44    <-- DIS
      74      14.12742423      14.12742424      -1.203E-09      0.45    <-- DIS
      75      14.12742423      14.12742424      -1.029E-09      0.45    <-- DIS
      76      14.12742423      14.12742424      -8.808E-10      0.46    <-- DIS
      77      14.12742423      14.12742424      -7.538E-10      0.46    <-- DIS
      78      14.12742423      14.12742424      -6.451E-10      0.47    <-- DIS
      79      14.12742424      14.12742424      -5.521E-10      0.48    <-- DIS
      80      14.12742424      14.12742424      -4.724E-10      0.48    <-- DIS
      81      14.12742424      14.12742424      -4.043E-10      0.49    <-- DIS
      82      14.12742424      14.12742424      -3.460E-10      0.49    <-- DIS
      83      14.12742424      14.12742424      -2.961E-10      0.50    <-- DIS
      84      14.12742424      14.12742424      -2.534E-10      0.51    <-- DIS
      85      14.12742424      14.12742424      -2.168E-10      0.51    <-- DIS
      86      14.12742424      14.12742424      -1.856E-10      0.52    <-- DIS
      87      14.12742424      14.12742424      -1.588E-10      0.52    <-- DIS
      88      14.12742424      14.12742424      -1.359E-10      0.53    <-- DIS
      89      14.12742424      14.12742424      -1.163E-10      0.54    <-- DIS
      90      14.12742424      14.12742424      -9.953E-11      0.54    <-- DIS
      91      14.12742424      14.12742424      -8.518E-11      0.55    <-- DIS
      92      14.12742424      14.12742424      -7.289E-11      0.55    <-- DIS
      93      14.12742424      14.12742424      -6.238E-11      0.56    <-- DIS
      94      14.12742424      14.12742424      -5.339E-11      0.57    <-- DIS
      95      14.12742424      14.12742424      -4.568E-11      0.57    <-- DIS
      96      14.12742424      14.12742424      -3.910E-11      0.58    <-- DIS
      97      14.12742424      14.12742424      -3.346E-11      0.58    <-- DIS
      98      14.12742424      14.12742424      -2.863E-11      0.59    <-- DIS
      99      14.12742424      14.12742424      -2.450E-11      0.60    <-- DIS
     100      14.12742424      14.12742424      -2.097E-11      0.60    <-- DIS
     101      14.12742424      14.12742424      -1.795E-11      0.61    <-- DIS
     102      14.12742424      14.12742424      -1.536E-11      0.61    <-- DIS
     103      14.12742424      14.12742424      -1.314E-11      0.62    <-- DIS
     104      14.12742424      14.12742424      -1.125E-11      0.63    <-- DIS
     105      14.12742424      14.12742424      -9.625E-12      0.63    <-- DIS
     106      14.12742424      14.12742424      -8.238E-12      0.64    <-- DIS
     107      14.12742424      14.12742424      -7.049E-12      0.64    <-- DIS
     108      14.12742424      14.12742424      -6.033E-12      0.65    <-- DIS
     109      14.12742424      14.12742424      -5.162E-12      0.66    <-- DIS
     110      14.12742424      14.12742424      -4.418E-12      0.66    <-- DIS
     111      14.12742424      14.12742424      -3.781E-12      0.67    <-- DIS
     112      14.12742424      14.12742424      -3.236E-12      0.67    <-- DIS
     113      14.12742424      14.12742424      -2.770E-12      0.68    <-- DIS
     114      14.12742424      14.12742424      -2.370E-12      0.69    <-- DIS
     115      14.12742424      14.12742424      -2.028E-12      0.69    <-- DIS
     116      14.12742424      14.12742424      -1.736E-12      0.70    <-- DIS
     117      14.12742424      14.12742424      -1.485E-12      0.70    <-- DIS
     118      14.12742424      14.12742424      -1.272E-12      0.71    <-- DIS
     119      14.12742424      14.12742424      -1.088E-12      0.72    <-- DIS
     120      14.12742424      14.12742424      -9.314E-13      0.72    <-- DIS
     121      14.12742424      14.12742424      -7.976E-13      0.73    <-- DIS
     122      14.12742424      14.12742424      -6.823E-13      0.74    <-- DIS

             <<<      Delta < 1.000E-12  over  3 iterations     >>>
             <<< Disentanglement convergence criteria satisfied >>>

        Final Omega_I    14.12742424 (Ang^2)

 +----------------------------------------------------------------------------+

 Time to disentangle bands      0.762 (sec)

 Writing checkpoint file sfo.2.chk... done


 *------------------------------- WANNIERISE ---------------------------------*
 +--------------------------------------------------------------------+<-- CONV
 | Iter  Delta Spread     RMS Gradient      Spread (Ang^2)      Time  |<-- CONV
 +--------------------------------------------------------------------+<-- CONV

 ------------------------------------------------------------------------------
 Initial State
  WF centre and spread    1  ( -0.000000, -0.000000, -0.000000 )     2.84784850
  WF centre and spread    2  (  0.000000, -0.000000, -0.000000 )     3.22652238
  WF centre and spread    3  (  0.000000,  0.000000, -0.000000 )     3.22652238
  WF centre and spread    4  (  0.000000,  0.000000,  0.000000 )     2.39977200
  WF centre and spread    5  ( -0.000000, -0.000000,  0.000000 )     2.74595940
  Sum of centres and spreads ( -0.000000,  0.000000, -0.000000 )    14.44662465

      0     0.144E+02     0.0000000000       14.4466246540       0.76  <-- CONV
        O_D=      0.0000000 O_OD=      0.3192004 O_TOT=     14.4466247 <-- SPRD
 ------------------------------------------------------------------------------
 Cycle:      1
  WF centre and spread    1  ( -0.000000,  0.000000, -0.000000 )     2.84823280
  WF centre and spread    2  ( -0.000000, -0.000000, -0.000000 )     3.22522217
  WF centre and spread    3  (  0.000000,  0.000000, -0.000000 )     3.22522217
  WF centre and spread    4  (  0.000000,  0.000000,  0.000000 )     2.39821655
  WF centre and spread    5  ( -0.000000, -0.000000,  0.000000 )     2.74408335
  Sum of centres and spreads ( -0.000000,  0.000000, -0.000000 )    14.44097703

      1    -0.565E-02     0.0792680870       14.4409770291       0.78  <-- CONV
        O_D=      0.0000000 O_OD=      0.3135528 O_TOT=     14.4409770 <-- SPRD
 Delta: O_D=  0.3383716E-17 O_OD= -0.5647625E-02 O_TOT= -0.5647625E-02 <-- DLTA
 ------------------------------------------------------------------------------
 Cycle:      2
  WF centre and spread    1  ( -0.000000,  0.000000, -0.000000 )     2.84853379
  WF centre and spread    2  ( -0.000000, -0.000000, -0.000000 )     3.22514164
  WF centre and spread    3  (  0.000000,  0.000000, -0.000000 )     3.22514164
  WF centre and spread    4  (  0.000000,  0.000000,  0.000000 )     2.39805895
  WF centre and spread    5  ( -0.000000, -0.000000,  0.000000 )     2.74368544
  Sum of centres and spreads ( -0.000000,  0.000000, -0.000000 )    14.44056147

      2    -0.416E-03     0.0270468790       14.4405614716       0.80  <-- CONV
        O_D=      0.0000000 O_OD=      0.3131372 O_TOT=     14.4405615 <-- SPRD
 Delta: O_D= -0.5240848E-17 O_OD= -0.4155575E-03 O_TOT= -0.4155575E-03 <-- DLTA
 ------------------------------------------------------------------------------
 Cycle:      3
  WF centre and spread    1  ( -0.000000,  0.000000, -0.000000 )     2.84878254
  WF centre and spread    2  ( -0.000000, -0.000000, -0.000000 )     3.22513191
  WF centre and spread    3  (  0.000000,  0.000000, -0.000000 )     3.22513191
  WF centre and spread    4  (  0.000000,  0.000000,  0.000000 )     2.39801819
  WF centre and spread    5  ( -0.000000, -0.000000,  0.000000 )     2.74340779
  Sum of centres and spreads ( -0.000000,  0.000000, -0.000000 )    14.44047235

      3    -0.891E-04     0.0113675723       14.4404723468       0.81  <-- CONV
        O_D=      0.0000000 O_OD=      0.3130481 O_TOT=     14.4404723 <-- SPRD
 Delta: O_D= -0.1559013E-17 O_OD= -0.8912483E-04 O_TOT= -0.8912483E-04 <-- DLTA
 ------------------------------------------------------------------------------
 Cycle:      4
  WF centre and spread    1  ( -0.000000,  0.000000, -0.000000 )     2.84896577
  WF centre and spread    2  ( -0.000000, -0.000000, -0.000000 )     3.22512643
  WF centre and spread    3  (  0.000000,  0.000000, -0.000000 )     3.22512643
  WF centre and spread    4  (  0.000000,  0.000000,  0.000000 )     2.39800278
  WF centre and spread    5  ( -0.000000, -0.000000,  0.000000 )     2.74322057
  Sum of centres and spreads ( -0.000000,  0.000000, -0.000000 )    14.44044199

      4    -0.304E-04     0.0062304942       14.4404419926       0.83  <-- CONV
        O_D=      0.0000000 O_OD=      0.3130177 O_TOT=     14.4404420 <-- SPRD
 Delta: O_D= -0.5533212E-18 O_OD= -0.3035414E-04 O_TOT= -0.3035414E-04 <-- DLTA
 ------------------------------------------------------------------------------
 Cycle:      5
  WF centre and spread    1  ( -0.000000,  0.000000, -0.000000 )     2.84902822
  WF centre and spread    2  ( -0.000000, -0.000000, -0.000000 )     3.22512437
  WF centre and spread    3  (  0.000000,  0.000000, -0.000000 )     3.22512437
  WF centre and spread    4  (  0.000000,  0.000000,  0.000000 )     2.39799204
  WF centre and spread    5  ( -0.000000, -0.000000,  0.000000 )     2.74316610
  Sum of centres and spreads ( -0.000000,  0.000000, -0.000000 )    14.44043511

      5    -0.688E-05     0.0032314466       14.4404351134       0.85  <-- CONV
        O_D=      0.0000000 O_OD=      0.3130109 O_TOT=     14.4404351 <-- SPRD
 Delta: O_D= -0.2652221E-18 O_OD= -0.6879227E-05 O_TOT= -0.6879227E-05 <-- DLTA
 ------------------------------------------------------------------------------
 Cycle:      6
  WF centre and spread    1  ( -0.000000,  0.000000, -0.000000 )     2.84904447
  WF centre and spread    2  ( -0.000000, -0.000000, -0.000000 )     3.22512522
  WF centre and spread    3  (  0.000000,  0.000000, -0.000000 )     3.22512523
  WF centre and spread    4  (  0.000000,  0.000000,  0.000000 )     2.39797780
  WF centre and spread    5  ( -0.000000, -0.000000,  0.000000 )     2.74316099
  Sum of centres and spreads ( -0.000000,  0.000000, -0.000000 )    14.44043370

      6    -0.141E-05     0.0013584368       14.4404337030       0.86  <-- CONV
        O_D=      0.0000000 O_OD=      0.3130095 O_TOT=     14.4404337 <-- SPRD
 Delta: O_D= -0.3083603E-19 O_OD= -0.1410378E-05 O_TOT= -0.1410378E-05 <-- DLTA
 ------------------------------------------------------------------------------
 Cycle:      7
  WF centre and spread    1  ( -0.000000,  0.000000, -0.000000 )     2.84904809
  WF centre and spread    2  ( -0.000000, -0.000000, -0.000000 )     3.22512529
  WF centre and spread    3  (  0.000000,  0.000000, -0.000000 )     3.22512529
  WF centre and spread    4  (  0.000000,  0.000000,  0.000000 )     2.39796982
  WF centre and spread    5  ( -0.000000, -0.000000,  0.000000 )     2.74316500
  Sum of centres and spreads ( -0.000000,  0.000000, -0.000000 )    14.44043349

      7    -0.216E-06     0.0006109393       14.4404334872       0.88  <-- CONV
        O_D=      0.0000000 O_OD=      0.3130092 O_TOT=     14.4404335 <-- SPRD
 Delta: O_D= -0.1771462E-19 O_OD= -0.2158257E-06 O_TOT= -0.2158257E-06 <-- DLTA
 ------------------------------------------------------------------------------
 Cycle:      8
  WF centre and spread    1  ( -0.000000,  0.000000, -0.000000 )     2.84905687
  WF centre and spread    2  ( -0.000000, -0.000000, -0.000000 )     3.22512517
  WF centre and spread    3  (  0.000000,  0.000000, -0.000000 )     3.22512517
  WF centre and spread    4  (  0.000000,  0.000000,  0.000000 )     2.39795526
  WF centre and spread    5  ( -0.000000, -0.000000,  0.000000 )     2.74317091
  Sum of centres and spreads ( -0.000000,  0.000000, -0.000000 )    14.44043337

      8    -0.113E-06     0.0003519105       14.4404333744       0.90  <-- CONV
        O_D=      0.0000000 O_OD=      0.3130091 O_TOT=     14.4404334 <-- SPRD
 Delta: O_D= -0.1704220E-19 O_OD= -0.1127570E-06 O_TOT= -0.1127570E-06 <-- DLTA
 ------------------------------------------------------------------------------
 Cycle:      9
  WF centre and spread    1  ( -0.000000,  0.000000, -0.000000 )     2.84906988
  WF centre and spread    2  ( -0.000000, -0.000000, -0.000000 )     3.22512500
  WF centre and spread    3  (  0.000000,  0.000000, -0.000000 )     3.22512500
  WF centre and spread    4  (  0.000000,  0.000000,  0.000000 )     2.39794004
  WF centre and spread    5  ( -0.000000, -0.000000,  0.000000 )     2.74317339
  Sum of centres and spreads ( -0.000000,  0.000000, -0.000000 )    14.44043331

      9    -0.604E-07     0.0002450826       14.4404333140       0.91  <-- CONV
        O_D=      0.0000000 O_OD=      0.3130091 O_TOT=     14.4404333 <-- SPRD
 Delta: O_D= -0.1885971E-20 O_OD= -0.6038575E-07 O_TOT= -0.6038575E-07 <-- DLTA
 ------------------------------------------------------------------------------
 Cycle:     10
  WF centre and spread    1  ( -0.000000,  0.000000, -0.000000 )     2.84908113
  WF centre and spread    2  ( -0.000000, -0.000000, -0.000000 )     3.22512503
  WF centre and spread    3  (  0.000000,  0.000000, -0.000000 )     3.22512503
  WF centre and spread    4  (  0.000000,  0.000000,  0.000000 )     2.39793026
  WF centre and spread    5  ( -0.000000, -0.000000,  0.000000 )     2.74317183
  Sum of centres and spreads ( -0.000000,  0.000000, -0.000000 )    14.44043329

     10    -0.272E-07     0.0001817093       14.4404332868       0.93  <-- CONV
        O_D=      0.0000000 O_OD=      0.3130090 O_TOT=     14.4404333 <-- SPRD
 Delta: O_D= -0.9270082E-20 O_OD= -0.2724312E-07 O_TOT= -0.2724312E-07 <-- DLTA
 ------------------------------------------------------------------------------
 Cycle:     11
  WF centre and spread    1  ( -0.000000,  0.000000, -0.000000 )     2.84908811
  WF centre and spread    2  ( -0.000000, -0.000000, -0.000000 )     3.22512505
  WF centre and spread    3  (  0.000000,  0.000000, -0.000000 )     3.22512505
  WF centre and spread    4  (  0.000000,  0.000000,  0.000000 )     2.39792564
  WF centre and spread    5  ( -0.000000, -0.000000,  0.000000 )     2.74316942
  Sum of centres and spreads ( -0.000000,  0.000000, -0.000000 )    14.44043328

     11    -0.101E-07     0.0001112244       14.4404332767       0.95  <-- CONV
        O_D=      0.0000000 O_OD=      0.3130090 O_TOT=     14.4404333 <-- SPRD
 Delta: O_D= -0.4511573E-20 O_OD= -0.1008109E-07 O_TOT= -0.1008110E-07 <-- DLTA
 ------------------------------------------------------------------------------
 Cycle:     12
  WF centre and spread    1  ( -0.000000,  0.000000, -0.000000 )     2.84908954
  WF centre and spread    2  ( -0.000000, -0.000000, -0.000000 )     3.22512507
  WF centre and spread    3  (  0.000000,  0.000000, -0.000000 )     3.22512507
  WF centre and spread    4  (  0.000000,  0.000000,  0.000000 )     2.39792475
  WF centre and spread    5  ( -0.000000, -0.000000,  0.000000 )     2.74316885
  Sum of centres and spreads ( -0.000000,  0.000000, -0.000000 )    14.44043328

     12    -0.162E-08     0.0000558140       14.4404332751       0.97  <-- CONV
        O_D=      0.0000000 O_OD=      0.3130090 O_TOT=     14.4404333 <-- SPRD
 Delta: O_D= -0.4758032E-20 O_OD= -0.1620869E-08 O_TOT= -0.1620869E-08 <-- DLTA
 ------------------------------------------------------------------------------
 Cycle:     13
  WF centre and spread    1  ( -0.000000,  0.000000, -0.000000 )     2.84908954
  WF centre and spread    2  ( -0.000000, -0.000000, -0.000000 )     3.22512507
  WF centre and spread    3  (  0.000000,  0.000000, -0.000000 )     3.22512507
  WF centre and spread    4  (  0.000000,  0.000000,  0.000000 )     2.39792475
  WF centre and spread    5  ( -0.000000, -0.000000,  0.000000 )     2.74316885
  Sum of centres and spreads ( -0.000000,  0.000000, -0.000000 )    14.44043328

     13    -0.175E-11     0.0000141284       14.4404332751       0.98  <-- CONV
        O_D=      0.0000000 O_OD=      0.3130090 O_TOT=     14.4404333 <-- SPRD
 Delta: O_D= -0.1184104E-22 O_OD= -0.1754152E-11 O_TOT= -0.1753264E-11 <-- DLTA
 ------------------------------------------------------------------------------
 Cycle:     14
  WF centre and spread    1  ( -0.000000,  0.000000, -0.000000 )     2.84908950
  WF centre and spread    2  ( -0.000000, -0.000000, -0.000000 )     3.22512509
[...]
  WF centre and spread    5  ( -0.000000, -0.000000,  0.000000 )     2.74316908
  Sum of centres and spreads ( -0.000000,  0.000000, -0.000000 )    14.44043327

   4979     0.000E+00     0.0000000118       14.4404332749      61.65  <-- CONV
        O_D=      0.0000000 O_OD=      0.3130090 O_TOT=     14.4404333 <-- SPRD
 Delta: O_D= -0.1506940E-26 O_OD=  0.4440892E-15 O_TOT=  0.0000000E+00 <-- DLTA
 ------------------------------------------------------------------------------
 Cycle:   4980
  WF centre and spread    1  ( -0.000000,  0.000000, -0.000000 )     2.84908940
  WF centre and spread    2  ( -0.000000, -0.000000, -0.000000 )     3.22512511
  WF centre and spread    3  (  0.000000,  0.000000, -0.000000 )     3.22512511
  WF centre and spread    4  (  0.000000,  0.000000,  0.000000 )     2.39792458
  WF centre and spread    5  ( -0.000000, -0.000000,  0.000000 )     2.74316908
  Sum of centres and spreads ( -0.000000,  0.000000, -0.000000 )    14.44043327

   4980     0.000E+00     0.0000000118       14.4404332749      61.67  <-- CONV
        O_D=      0.0000000 O_OD=      0.3130090 O_TOT=     14.4404333 <-- SPRD
 Delta: O_D=  0.2836441E-27 O_OD= -0.1110223E-15 O_TOT=  0.0000000E+00 <-- DLTA
 ------------------------------------------------------------------------------
 Cycle:   4981
  WF centre and spread    1  ( -0.000000,  0.000000, -0.000000 )     2.84908940
  WF centre and spread    2  ( -0.000000, -0.000000, -0.000000 )     3.22512511
  WF centre and spread    3  (  0.000000,  0.000000, -0.000000 )     3.22512511
  WF centre and spread    4  (  0.000000,  0.000000,  0.000000 )     2.39792458
  WF centre and spread    5  ( -0.000000, -0.000000,  0.000000 )     2.74316908
  Sum of centres and spreads ( -0.000000,  0.000000, -0.000000 )    14.44043327

   4981     0.000E+00     0.0000000118       14.4404332749      61.68  <-- CONV
        O_D=      0.0000000 O_OD=      0.3130090 O_TOT=     14.4404333 <-- SPRD
 Delta: O_D=  0.1322871E-27 O_OD=  0.0000000E+00 O_TOT=  0.0000000E+00 <-- DLTA
 ------------------------------------------------------------------------------
 Cycle:   4982
  WF centre and spread    1  ( -0.000000,  0.000000, -0.000000 )     2.84908940
  WF centre and spread    2  ( -0.000000, -0.000000, -0.000000 )     3.22512511
  WF centre and spread    3  (  0.000000,  0.000000, -0.000000 )     3.22512511
  WF centre and spread    4  (  0.000000,  0.000000,  0.000000 )     2.39792458
  WF centre and spread    5  ( -0.000000, -0.000000,  0.000000 )     2.74316908
  Sum of centres and spreads ( -0.000000,  0.000000, -0.000000 )    14.44043327

   4982     0.000E+00     0.0000000118       14.4404332749      61.70  <-- CONV
        O_D=      0.0000000 O_OD=      0.3130090 O_TOT=     14.4404333 <-- SPRD
 Delta: O_D= -0.1309727E-26 O_OD=  0.3330669E-15 O_TOT=  0.0000000E+00 <-- DLTA
 ------------------------------------------------------------------------------
 Cycle:   4983
  WF centre and spread    1  ( -0.000000,  0.000000, -0.000000 )     2.84908940
  WF centre and spread    2  ( -0.000000, -0.000000, -0.000000 )     3.22512511
  WF centre and spread    3  (  0.000000,  0.000000, -0.000000 )     3.22512511
  WF centre and spread    4  (  0.000000,  0.000000,  0.000000 )     2.39792458
  WF centre and spread    5  ( -0.000000, -0.000000,  0.000000 )     2.74316908
  Sum of centres and spreads ( -0.000000,  0.000000, -0.000000 )    14.44043327

   4983     0.000E+00     0.0000000118       14.4404332749      61.72  <-- CONV
        O_D=      0.0000000 O_OD=      0.3130090 O_TOT=     14.4404333 <-- SPRD
 Delta: O_D= -0.4790057E-27 O_OD= -0.4440892E-15 O_TOT=  0.0000000E+00 <-- DLTA
 ------------------------------------------------------------------------------
 Cycle:   4984
  WF centre and spread    1  ( -0.000000,  0.000000, -0.000000 )     2.84908940
  WF centre and spread    2  ( -0.000000, -0.000000, -0.000000 )     3.22512511
  WF centre and spread    3  (  0.000000,  0.000000, -0.000000 )     3.22512511
  WF centre and spread    4  (  0.000000,  0.000000,  0.000000 )     2.39792458
  WF centre and spread    5  ( -0.000000, -0.000000,  0.000000 )     2.74316908
  Sum of centres and spreads ( -0.000000,  0.000000, -0.000000 )    14.44043327

   4984     0.000E+00     0.0000000118       14.4404332749      61.74  <-- CONV
        O_D=      0.0000000 O_OD=      0.3130090 O_TOT=     14.4404333 <-- SPRD
 Delta: O_D= -0.1475203E-26 O_OD= -0.2775558E-15 O_TOT=  0.0000000E+00 <-- DLTA
 ------------------------------------------------------------------------------
 Cycle:   4985
  WF centre and spread    1  ( -0.000000,  0.000000, -0.000000 )     2.84908940
  WF centre and spread    2  ( -0.000000, -0.000000, -0.000000 )     3.22512511
  WF centre and spread    3  (  0.000000,  0.000000, -0.000000 )     3.22512511
  WF centre and spread    4  (  0.000000,  0.000000,  0.000000 )     2.39792458
  WF centre and spread    5  ( -0.000000, -0.000000,  0.000000 )     2.74316908
  Sum of centres and spreads ( -0.000000,  0.000000, -0.000000 )    14.44043327

   4985     0.000E+00     0.0000000118       14.4404332749      61.75  <-- CONV
        O_D=      0.0000000 O_OD=      0.3130090 O_TOT=     14.4404333 <-- SPRD
 Delta: O_D= -0.1019481E-26 O_OD=  0.3330669E-15 O_TOT=  0.0000000E+00 <-- DLTA
 ------------------------------------------------------------------------------
 Cycle:   4986
  WF centre and spread    1  ( -0.000000,  0.000000, -0.000000 )     2.84908940
  WF centre and spread    2  ( -0.000000, -0.000000, -0.000000 )     3.22512511
  WF centre and spread    3  (  0.000000,  0.000000, -0.000000 )     3.22512511
  WF centre and spread    4  (  0.000000,  0.000000,  0.000000 )     2.39792458
  WF centre and spread    5  ( -0.000000, -0.000000,  0.000000 )     2.74316908
  Sum of centres and spreads ( -0.000000,  0.000000, -0.000000 )    14.44043327

   4986     0.000E+00     0.0000000118       14.4404332749      61.77  <-- CONV
        O_D=      0.0000000 O_OD=      0.3130090 O_TOT=     14.4404333 <-- SPRD
 Delta: O_D=  0.7855491E-27 O_OD= -0.2775558E-15 O_TOT=  0.0000000E+00 <-- DLTA
 ------------------------------------------------------------------------------
 Cycle:   4987
  WF centre and spread    1  ( -0.000000,  0.000000, -0.000000 )     2.84908940
  WF centre and spread    2  ( -0.000000, -0.000000, -0.000000 )     3.22512511
  WF centre and spread    3  (  0.000000,  0.000000, -0.000000 )     3.22512511
  WF centre and spread    4  (  0.000000,  0.000000,  0.000000 )     2.39792458
  WF centre and spread    5  ( -0.000000, -0.000000,  0.000000 )     2.74316908
  Sum of centres and spreads ( -0.000000,  0.000000, -0.000000 )    14.44043327

   4987     0.000E+00     0.0000000118       14.4404332749      61.79  <-- CONV
        O_D=      0.0000000 O_OD=      0.3130090 O_TOT=     14.4404333 <-- SPRD
 Delta: O_D=  0.1267766E-27 O_OD=  0.0000000E+00 O_TOT=  0.0000000E+00 <-- DLTA
 ------------------------------------------------------------------------------
 Cycle:   4988
  WF centre and spread    1  ( -0.000000,  0.000000, -0.000000 )     2.84908940
  WF centre and spread    2  ( -0.000000, -0.000000, -0.000000 )     3.22512511
  WF centre and spread    3  (  0.000000,  0.000000, -0.000000 )     3.22512511
  WF centre and spread    4  (  0.000000,  0.000000,  0.000000 )     2.39792458
  WF centre and spread    5  ( -0.000000, -0.000000,  0.000000 )     2.74316908
  Sum of centres and spreads ( -0.000000,  0.000000, -0.000000 )    14.44043327

   4988     0.000E+00     0.0000000118       14.4404332749      61.80  <-- CONV
        O_D=      0.0000000 O_OD=      0.3130090 O_TOT=     14.4404333 <-- SPRD
 Delta: O_D=  0.8316981E-27 O_OD= -0.1110223E-15 O_TOT=  0.0000000E+00 <-- DLTA
 ------------------------------------------------------------------------------
 Cycle:   4989
  WF centre and spread    1  ( -0.000000,  0.000000, -0.000000 )     2.84908940
  WF centre and spread    2  ( -0.000000, -0.000000, -0.000000 )     3.22512511
  WF centre and spread    3  (  0.000000,  0.000000, -0.000000 )     3.22512511
  WF centre and spread    4  (  0.000000,  0.000000,  0.000000 )     2.39792458
  WF centre and spread    5  ( -0.000000, -0.000000,  0.000000 )     2.74316908
  Sum of centres and spreads ( -0.000000,  0.000000, -0.000000 )    14.44043327

   4989     0.000E+00     0.0000000118       14.4404332749      61.82  <-- CONV
        O_D=      0.0000000 O_OD=      0.3130090 O_TOT=     14.4404333 <-- SPRD
 Delta: O_D=  0.1510418E-26 O_OD= -0.5551115E-16 O_TOT=  0.0000000E+00 <-- DLTA
 ------------------------------------------------------------------------------
 Cycle:   4990
  WF centre and spread    1  ( -0.000000,  0.000000, -0.000000 )     2.84908940
  WF centre and spread    2  ( -0.000000, -0.000000, -0.000000 )     3.22512511
  WF centre and spread    3  (  0.000000,  0.000000, -0.000000 )     3.22512511
  WF centre and spread    4  (  0.000000,  0.000000,  0.000000 )     2.39792458
  WF centre and spread    5  ( -0.000000, -0.000000,  0.000000 )     2.74316908
  Sum of centres and spreads ( -0.000000,  0.000000, -0.000000 )    14.44043327

   4990     0.000E+00     0.0000000118       14.4404332749      61.84  <-- CONV
        O_D=      0.0000000 O_OD=      0.3130090 O_TOT=     14.4404333 <-- SPRD
 Delta: O_D=  0.1098372E-26 O_OD=  0.4440892E-15 O_TOT=  0.0000000E+00 <-- DLTA
 ------------------------------------------------------------------------------
 Cycle:   4991
  WF centre and spread    1  ( -0.000000,  0.000000, -0.000000 )     2.84908940
  WF centre and spread    2  ( -0.000000, -0.000000, -0.000000 )     3.22512511
  WF centre and spread    3  (  0.000000,  0.000000, -0.000000 )     3.22512511
  WF centre and spread    4  (  0.000000,  0.000000,  0.000000 )     2.39792458
  WF centre and spread    5  ( -0.000000, -0.000000,  0.000000 )     2.74316908
  Sum of centres and spreads ( -0.000000,  0.000000, -0.000000 )    14.44043327

   4991     0.000E+00     0.0000000118       14.4404332749      61.85  <-- CONV
        O_D=      0.0000000 O_OD=      0.3130090 O_TOT=     14.4404333 <-- SPRD
 Delta: O_D= -0.1610229E-26 O_OD= -0.1110223E-15 O_TOT=  0.0000000E+00 <-- DLTA
 ------------------------------------------------------------------------------
 Cycle:   4992
  WF centre and spread    1  ( -0.000000,  0.000000, -0.000000 )     2.84908940
  WF centre and spread    2  ( -0.000000, -0.000000, -0.000000 )     3.22512511
  WF centre and spread    3  (  0.000000,  0.000000, -0.000000 )     3.22512511
  WF centre and spread    4  (  0.000000,  0.000000,  0.000000 )     2.39792458
  WF centre and spread    5  ( -0.000000, -0.000000,  0.000000 )     2.74316908
  Sum of centres and spreads ( -0.000000,  0.000000, -0.000000 )    14.44043327

   4992     0.000E+00     0.0000000118       14.4404332749      61.87  <-- CONV
        O_D=      0.0000000 O_OD=      0.3130090 O_TOT=     14.4404333 <-- SPRD
 Delta: O_D= -0.8614670E-27 O_OD=  0.2220446E-15 O_TOT=  0.0000000E+00 <-- DLTA
 ------------------------------------------------------------------------------
 Cycle:   4993
  WF centre and spread    1  ( -0.000000,  0.000000, -0.000000 )     2.84908940
  WF centre and spread    2  ( -0.000000, -0.000000, -0.000000 )     3.22512511
  WF centre and spread    3  (  0.000000,  0.000000, -0.000000 )     3.22512511
  WF centre and spread    4  (  0.000000,  0.000000,  0.000000 )     2.39792458
  WF centre and spread    5  ( -0.000000, -0.000000,  0.000000 )     2.74316908
  Sum of centres and spreads ( -0.000000,  0.000000, -0.000000 )    14.44043327

   4993     0.000E+00     0.0000000118       14.4404332749      61.89  <-- CONV
        O_D=      0.0000000 O_OD=      0.3130090 O_TOT=     14.4404333 <-- SPRD
 Delta: O_D= -0.3203627E-26 O_OD= -0.2220446E-15 O_TOT=  0.0000000E+00 <-- DLTA
 ------------------------------------------------------------------------------
 Cycle:   4994
  WF centre and spread    1  ( -0.000000,  0.000000, -0.000000 )     2.84908940
  WF centre and spread    2  ( -0.000000, -0.000000, -0.000000 )     3.22512511
  WF centre and spread    3  (  0.000000,  0.000000, -0.000000 )     3.22512511
  WF centre and spread    4  (  0.000000,  0.000000,  0.000000 )     2.39792458
  WF centre and spread    5  ( -0.000000, -0.000000,  0.000000 )     2.74316908
  Sum of centres and spreads ( -0.000000,  0.000000, -0.000000 )    14.44043327

   4994     0.000E+00     0.0000000118       14.4404332749      61.90  <-- CONV
        O_D=      0.0000000 O_OD=      0.3130090 O_TOT=     14.4404333 <-- SPRD
 Delta: O_D= -0.2575968E-26 O_OD= -0.3330669E-15 O_TOT=  0.0000000E+00 <-- DLTA
 ------------------------------------------------------------------------------
 Cycle:   4995
  WF centre and spread    1  ( -0.000000,  0.000000, -0.000000 )     2.84908940
  WF centre and spread    2  ( -0.000000, -0.000000, -0.000000 )     3.22512511
  WF centre and spread    3  (  0.000000,  0.000000, -0.000000 )     3.22512511
  WF centre and spread    4  (  0.000000,  0.000000,  0.000000 )     2.39792458
  WF centre and spread    5  ( -0.000000, -0.000000,  0.000000 )     2.74316908
  Sum of centres and spreads ( -0.000000,  0.000000, -0.000000 )    14.44043327

   4995     0.000E+00     0.0000000118       14.4404332749      61.92  <-- CONV
        O_D=      0.0000000 O_OD=      0.3130090 O_TOT=     14.4404333 <-- SPRD
 Delta: O_D= -0.1007930E-26 O_OD= -0.2775558E-15 O_TOT=  0.0000000E+00 <-- DLTA
 ------------------------------------------------------------------------------
 Cycle:   4996
  WF centre and spread    1  ( -0.000000,  0.000000, -0.000000 )     2.84908940
  WF centre and spread    2  ( -0.000000, -0.000000, -0.000000 )     3.22512511
  WF centre and spread    3  (  0.000000,  0.000000, -0.000000 )     3.22512511
  WF centre and spread    4  (  0.000000,  0.000000,  0.000000 )     2.39792458
  WF centre and spread    5  ( -0.000000, -0.000000,  0.000000 )     2.74316908
  Sum of centres and spreads ( -0.000000,  0.000000, -0.000000 )    14.44043327

   4996     0.000E+00     0.0000000118       14.4404332749      61.93  <-- CONV
        O_D=      0.0000000 O_OD=      0.3130090 O_TOT=     14.4404333 <-- SPRD
 Delta: O_D=  0.8098111E-27 O_OD= -0.2220446E-15 O_TOT=  0.0000000E+00 <-- DLTA
 ------------------------------------------------------------------------------
 Cycle:   4997
  WF centre and spread    1  ( -0.000000,  0.000000, -0.000000 )     2.84908940
  WF centre and spread    2  ( -0.000000, -0.000000, -0.000000 )     3.22512511
  WF centre and spread    3  (  0.000000,  0.000000, -0.000000 )     3.22512511
  WF centre and spread    4  (  0.000000,  0.000000,  0.000000 )     2.39792458
  WF centre and spread    5  ( -0.000000, -0.000000,  0.000000 )     2.74316908
  Sum of centres and spreads ( -0.000000,  0.000000, -0.000000 )    14.44043327

   4997     0.000E+00     0.0000000118       14.4404332749      61.95  <-- CONV
        O_D=      0.0000000 O_OD=      0.3130090 O_TOT=     14.4404333 <-- SPRD
 Delta: O_D= -0.1724462E-27 O_OD=  0.0000000E+00 O_TOT=  0.0000000E+00 <-- DLTA
 ------------------------------------------------------------------------------
 Cycle:   4998
  WF centre and spread    1  ( -0.000000,  0.000000, -0.000000 )     2.84908940
  WF centre and spread    2  ( -0.000000, -0.000000, -0.000000 )     3.22512511
  WF centre and spread    3  (  0.000000,  0.000000, -0.000000 )     3.22512511
  WF centre and spread    4  (  0.000000,  0.000000,  0.000000 )     2.39792458
  WF centre and spread    5  ( -0.000000, -0.000000,  0.000000 )     2.74316908
  Sum of centres and spreads ( -0.000000,  0.000000, -0.000000 )    14.44043327

   4998     0.000E+00     0.0000000118       14.4404332749      61.97  <-- CONV
        O_D=      0.0000000 O_OD=      0.3130090 O_TOT=     14.4404333 <-- SPRD
 Delta: O_D=  0.7976878E-27 O_OD= -0.1665335E-15 O_TOT=  0.0000000E+00 <-- DLTA
 ------------------------------------------------------------------------------
 Cycle:   4999
  WF centre and spread    1  ( -0.000000,  0.000000, -0.000000 )     2.84908940
  WF centre and spread    2  ( -0.000000, -0.000000, -0.000000 )     3.22512511
  WF centre and spread    3  (  0.000000,  0.000000, -0.000000 )     3.22512511
  WF centre and spread    4  (  0.000000,  0.000000,  0.000000 )     2.39792458
  WF centre and spread    5  ( -0.000000, -0.000000,  0.000000 )     2.74316908
  Sum of centres and spreads ( -0.000000,  0.000000, -0.000000 )    14.44043327

   4999     0.000E+00     0.0000000118       14.4404332749      61.98  <-- CONV
        O_D=      0.0000000 O_OD=      0.3130090 O_TOT=     14.4404333 <-- SPRD
 Delta: O_D= -0.1273853E-26 O_OD=  0.5551115E-15 O_TOT=  0.0000000E+00 <-- DLTA
 ------------------------------------------------------------------------------
 Cycle:   5000
  WF centre and spread    1  ( -0.000000,  0.000000, -0.000000 )     2.84908940
  WF centre and spread    2  ( -0.000000, -0.000000, -0.000000 )     3.22512511
  WF centre and spread    3  (  0.000000,  0.000000, -0.000000 )     3.22512511
  WF centre and spread    4  (  0.000000,  0.000000,  0.000000 )     2.39792458
  WF centre and spread    5  ( -0.000000, -0.000000,  0.000000 )     2.74316908
  Sum of centres and spreads ( -0.000000,  0.000000, -0.000000 )    14.44043327

   5000     0.000E+00     0.0000000118       14.4404332749      62.00  <-- CONV
        O_D=      0.0000000 O_OD=      0.3130090 O_TOT=     14.4404333 <-- SPRD
 Delta: O_D=  0.2004313E-26 O_OD=  0.0000000E+00 O_TOT=  0.0000000E+00 <-- DLTA
 ------------------------------------------------------------------------------

 Writing checkpoint file sfo.2.chk... done

 Final State
  WF centre and spread    1  ( -0.000000,  0.000000, -0.000000 )     2.84908940
  WF centre and spread    2  ( -0.000000, -0.000000, -0.000000 )     3.22512511
  WF centre and spread    3  (  0.000000,  0.000000, -0.000000 )     3.22512511
  WF centre and spread    4  (  0.000000,  0.000000,  0.000000 )     2.39792458
  WF centre and spread    5  ( -0.000000, -0.000000,  0.000000 )     2.74316908
  Sum of centres and spreads ( -0.000000,  0.000000, -0.000000 )    14.44043327

         Spreads (Ang^2)       Omega I      =    14.127424244
        ================       Omega D      =     0.000000000
                               Omega OD     =     0.313009031
    Final Spread (Ang^2)       Omega Total  =    14.440433275
 ------------------------------------------------------------------------------
 Time for wannierise           61.135 (sec)

 Writing checkpoint file sfo.2.chk... done

 *---------------------------------------------------------------------------*
 |                               PLOTTING                                    |
 *---------------------------------------------------------------------------*


 Calculating interpolated band-structure

 Time to calculate interpolated band structure       0.313 (sec)

 Time for plotting              0.418 (sec)
 Total Execution Time          63.515 (sec)

 *===========================================================================*
 |                             TIMING INFORMATION                            |
 *===========================================================================*
 |    Tag                                                Ncalls      Time (s)|
 |---------------------------------------------------------------------------|
 |kmesh: get                                        :         1         0.775|
 |overlap: allocate                                 :         1         0.000|
 |overlap: read                                     :         1         0.382|
 |dis: main                                         :         1         0.761|
 |wann: main                                        :         1        61.135|
 |plot: main                                        :         1         0.418|
 *---------------------------------------------------------------------------*

 All done: wannier90 exiting
