 written on 19Feb2024 at 17:53:45 
           5
         729
    8    4    4    4    4    4    4    4    8    4    2    2    2    2    2
    2    2    4    4    2    2    2    2    2    2    2    4    4    2    2
    2    2    2    2    2    4    4    2    2    2    2    2    2    2    4
    4    2    2    2    2    2    2    2    4    4    2    2    2    2    2
    2    2    4    4    2    2    2    2    2    2    2    4    8    4    4
    4    4    4    4    4    8    4    2    2    2    2    2    2    2    4
    2    1    1    1    1    1    1    1    2    2    1    1    1    1    1
    1    1    2    2    1    1    1    1    1    1    1    2    2    1    1
    1    1    1    1    1    2    2    1    1    1    1    1    1    1    2
    2    1    1    1    1    1    1    1    2    2    1    1    1    1    1
    1    1    2    4    2    2    2    2    2    2    2    4    4    2    2
    2    2    2    2    2    4    2    1    1    1    1    1    1    1    2
    2    1    1    1    1    1    1    1    2    2    1    1    1    1    1
    1    1    2    2    1    1    1    1    1    1    1    2    2    1    1
    1    1    1    1    1    2    2    1    1    1    1    1    1    1    2
    2    1    1    1    1    1    1    1    2    4    2    2    2    2    2
    2    2    4    4    2    2    2    2    2    2    2    4    2    1    1
    1    1    1    1    1    2    2    1    1    1    1    1    1    1    2
    2    1    1    1    1    1    1    1    2    2    1    1    1    1    1
    1    1    2    2    1    1    1    1    1    1    1    2    2    1    1
    1    1    1    1    1    2    2    1    1    1    1    1    1    1    2
    4    2    2    2    2    2    2    2    4    4    2    2    2    2    2
    2    2    4    2    1    1    1    1    1    1    1    2    2    1    1
    1    1    1    1    1    2    2    1    1    1    1    1    1    1    2
    2    1    1    1    1    1    1    1    2    2    1    1    1    1    1
    1    1    2    2    1    1    1    1    1    1    1    2    2    1    1
    1    1    1    1    1    2    4    2    2    2    2    2    2    2    4
    4    2    2    2    2    2    2    2    4    2    1    1    1    1    1
    1    1    2    2    1    1    1    1    1    1    1    2    2    1    1
    1    1    1    1    1    2    2    1    1    1    1    1    1    1    2
    2    1    1    1    1    1    1    1    2    2    1    1    1    1    1
    1    1    2    2    1    1    1    1    1    1    1    2    4    2    2
    2    2    2    2    2    4    4    2    2    2    2    2    2    2    4
    2    1    1    1    1    1    1    1    2    2    1    1    1    1    1
    1    1    2    2    1    1    1    1    1    1    1    2    2    1    1
    1    1    1    1    1    2    2    1    1    1    1    1    1    1    2
    2    1    1    1    1    1    1    1    2    2    1    1    1    1    1
    1    1    2    4    2    2    2    2    2    2    2    4    4    2    2
    2    2    2    2    2    4    2    1    1    1    1    1    1    1    2
    2    1    1    1    1    1    1    1    2    2    1    1    1    1    1
    1    1    2    2    1    1    1    1    1    1    1    2    2    1    1
    1    1    1    1    1    2    2    1    1    1    1    1    1    1    2
    2    1    1    1    1    1    1    1    2    4    2    2    2    2    2
    2    2    4    8    4    4    4    4    4    4    4    8    4    2    2
    2    2    2    2    2    4    4    2    2    2    2    2    2    2    4
    4    2    2    2    2    2    2    2    4    4    2    2    2    2    2
    2    2    4    4    2    2    2    2    2    2    2    4    4    2    2
    2    2    2    2    2    4    4    2    2    2    2    2    2    2    4
    8    4    4    4    4    4    4    4    8
   -4   -4   -4    1    1   -0.000001   -0.000000
   -4   -4   -4    2    1    0.000000    0.000000
   -4   -4   -4    3    1   -0.000000    0.000000
   -4   -4   -4    4    1    0.000000   -0.000000
   -4   -4   -4    5    1   -0.000000   -0.000000
   -4   -4   -4    1    2    0.000000   -0.000000
   -4   -4   -4    2    2   -0.000002   -0.000000
   -4   -4   -4    3    2    0.000000    0.000000
   -4   -4   -4    4    2   -0.000000    0.000000
   -4   -4   -4    5    2    0.000000    0.000000
   -4   -4   -4    1    3   -0.000000   -0.000000
   -4   -4   -4    2    3    0.000000   -0.000000
   -4   -4   -4    3    3   -0.000002   -0.000000
   -4   -4   -4    4    3   -0.000000   -0.000000
   -4   -4   -4    5    3    0.000000    0.000000
   -4   -4   -4    1    4    0.000000    0.000000
   -4   -4   -4    2    4   -0.000000   -0.000000
   -4   -4   -4    3    4   -0.000000    0.000000
   -4   -4   -4    4    4   -0.000002   -0.000000
   -4   -4   -4    5    4   -0.000000    0.000000
   -4   -4   -4    1    5   -0.000000    0.000000
   -4   -4   -4    2    5    0.000000   -0.000000
   -4   -4   -4    3    5    0.000000   -0.000000
   -4   -4   -4    4    5   -0.000000   -0.000000
   -4   -4   -4    5    5   -0.000002   -0.000000
   -4   -4   -3    1    1    0.000000   -0.000000
   -4   -4   -3    2    1   -0.000000   -0.000000
   -4   -4   -3    3    1    0.000000   -0.000000
   -4   -4   -3    4    1    0.000000    0.000000
   -4   -4   -3    5    1    0.000000    0.000000
   -4   -4   -3    1    2   -0.000000    0.000000
   -4   -4   -3    2    2   -0.000000    0.000000
   -4   -4   -3    3    2    0.000000   -0.000000
   -4   -4   -3    4    2   -0.000000    0.000000
   -4   -4   -3    5    2    0.000000    0.000000
   -4   -4   -3    1    3    0.000000    0.000000
   -4   -4   -3    2    3    0.000000   -0.000000
   -4   -4   -3    3    3   -0.000000   -0.000000
   -4   -4   -3    4    3   -0.000000   -0.000000
   -4   -4   -3    5    3    0.000000   -0.000000
   -4   -4   -3    1    4    0.000000   -0.000000
   -4   -4   -3    2    4   -0.000000   -0.000000
   -4   -4   -3    3    4   -0.000000    0.000000
   -4   -4   -3    4    4   -0.000000    0.000000
   -4   -4   -3    5    4    0.000000    0.000000
   -4   -4   -3    1    5    0.000000   -0.000000
   -4   -4   -3    2    5    0.000000   -0.000000
   -4   -4   -3    3    5    0.000000    0.000000
   -4   -4   -3    4    5    0.000000    0.000000
   -4   -4   -3    5    5    0.000000   -0.000000
   -4   -4   -2    1    1   -0.000002    0.000000
   -4   -4   -2    2    1   -0.000000   -0.000000
   -4   -4   -2    3    1    0.000000   -0.000000
   -4   -4   -2    4    1    0.000000    0.000000
   -4   -4   -2    5    1    0.000000    0.000000
   -4   -4   -2    1    2   -0.000000    0.000000
   -4   -4   -2    2    2   -0.000001    0.000000
   -4   -4   -2    3    2    0.000000   -0.000000
   -4   -4   -2    4    2    0.000000   -0.000000
   -4   -4   -2    5    2   -0.000000   -0.000000
   -4   -4   -2    1    3    0.000000    0.000000
   -4   -4   -2    2    3    0.000000   -0.000000
   -4   -4   -2    3    3   -0.000001   -0.000000
   -4   -4   -2    4    3    0.000000    0.000000
   -4   -4   -2    5    3   -0.000000   -0.000000
   -4   -4   -2    1    4    0.000000   -0.000000
   -4   -4   -2    2    4    0.000000    0.000000
   -4   -4   -2    3    4    0.000000   -0.000000
   -4   -4   -2    4    4   -0.000001   -0.000000
   -4   -4   -2    5    4    0.000000    0.000000
   -4   -4   -2    1    5    0.000000   -0.000000
   -4   -4   -2    2    5   -0.000000    0.000000
   -4   -4   -2    3    5    0.000000   -0.000000
   -4   -4   -2    4    5   -0.000000   -0.000000
   -4   -4   -2    5    5   -0.000002    0.000000
   -4   -4   -1    1    1   -0.000002    0.000000
   -4   -4   -1    2    1   -0.000000   -0.000000
   -4   -4   -1    3    1    0.000000   -0.000000
   -4   -4   -1    4    1    0.000000    0.000000
   -4   -4   -1    5    1    0.000000    0.000000
   -4   -4   -1    1    2   -0.000000    0.000000
   -4   -4   -1    2    2    0.000001   -0.000000
   -4   -4   -1    3    2    0.000000   -0.000000
   -4   -4   -1    4    2    0.000000   -0.000000
   -4   -4   -1    5    2   -0.000000    0.000000
   -4   -4   -1    1    3    0.000000    0.000000
   -4   -4   -1    2    3   -0.000000   -0.000000
   -4   -4   -1    3    3    0.000001    0.000000
   -4   -4   -1    4    3    0.000000    0.000000
   -4   -4   -1    5    3   -0.000000    0.000000
   -4   -4   -1    1    4    0.000000   -0.000000
   -4   -4   -1    2    4   -0.000000    0.000000
   -4   -4   -1    3    4    0.000000   -0.000000
   -4   -4   -1    4    4    0.000003   -0.000000
   -4   -4   -1    5    4    0.000000    0.000000
   -4   -4   -1    1    5    0.000000   -0.000000
   -4   -4   -1    2    5   -0.000000    0.000000
   -4   -4   -1    3    5   -0.000000   -0.000000
   -4   -4   -1    4    5    0.000000   -0.000000
   -4   -4   -1    5    5   -0.000010    0.000000
   -4   -4    0    1    1   -0.000009   -0.000000
   -4   -4    0    2    1   -0.000000   -0.000000
   -4   -4    0    3    1    0.000000   -0.000000
   -4   -4    0    4    1    0.000000    0.000000
   -4   -4    0    5    1    0.000000    0.000000
   -4   -4    0    1    2   -0.000000    0.000000
   -4   -4    0    2    2   -0.000000    0.000000
   -4   -4    0    3    2   -0.000000   -0.000000
   -4   -4    0    4    2   -0.000000   -0.000000
   -4   -4    0    5    2   -0.000000   -0.000000
   -4   -4    0    1    3    0.000000    0.000000
   -4   -4    0    2    3   -0.000000    0.000000
   -4   -4    0    3    3   -0.000000    0.000000
   -4   -4    0    4    3   -0.000000    0.000000
   -4   -4    0    5    3   -0.000000    0.000000
   -4   -4    0    1    4    0.000000   -0.000000
   -4   -4    0    2    4   -0.000000    0.000000
   -4   -4    0    3    4   -0.000000   -0.000000
   -4   -4    0    4    4    0.000015    0.000000
   -4   -4    0    5    4   -0.000000    0.000000
   -4   -4    0    1    5    0.000000   -0.000000
   -4   -4    0    2    5   -0.000000    0.000000
   -4   -4    0    3    5   -0.000000   -0.000000
   -4   -4    0    4    5   -0.000000   -0.000000
   -4   -4    0    5    5   -0.000069    0.000000
   -4   -4    1    1    1   -0.000002   -0.000000
   -4   -4    1    2    1   -0.000000   -0.000000
   -4   -4    1    3    1    0.000000   -0.000000
   -4   -4    1    4    1    0.000000    0.000000
   -4   -4    1    5    1    0.000000    0.000000
   -4   -4    1    1    2   -0.000000    0.000000
   -4   -4    1    2    2    0.000001    0.000000
   -4   -4    1    3    2   -0.000000    0.000000
   -4   -4    1    4    2   -0.000000   -0.000000
   -4   -4    1    5    2   -0.000000   -0.000000
   -4   -4    1    1    3    0.000000    0.000000
   -4   -4    1    2    3    0.000000    0.000000
   -4   -4    1    3    3    0.000001   -0.000000
   -4   -4    1    4    3    0.000000    0.000000
   -4   -4    1    5    3   -0.000000    0.000000
   -4   -4    1    1    4    0.000000   -0.000000
   -4   -4    1    2    4    0.000000    0.000000
   -4   -4    1    3    4    0.000000   -0.000000
   -4   -4    1    4    4    0.000003    0.000000
   -4   -4    1    5    4    0.000000    0.000000
   -4   -4    1    1    5    0.000000   -0.000000
   -4   -4    1    2    5   -0.000000   -0.000000
   -4   -4    1    3    5   -0.000000   -0.000000
   -4   -4    1    4    5    0.000000   -0.000000
   -4   -4    1    5    5   -0.000010   -0.000000
   -4   -4    2    1    1   -0.000002   -0.000000
   -4   -4    2    2    1   -0.000000   -0.000000
   -4   -4    2    3    1    0.000000   -0.000000
   -4   -4    2    4    1    0.000000    0.000000
   -4   -4    2    5    1    0.000000    0.000000
   -4   -4    2    1    2   -0.000000    0.000000
   -4   -4    2    2    2   -0.000001   -0.000000
   -4   -4    2    3    2    0.000000    0.000000
   -4   -4    2    4    2    0.000000   -0.000000
   -4   -4    2    5    2   -0.000000   -0.000000
   -4   -4    2    1    3    0.000000    0.000000
   -4   -4    2    2    3    0.000000    0.000000
   -4   -4    2    3    3   -0.000001    0.000000
   -4   -4    2    4    3    0.000000    0.000000
   -4   -4    2    5    3    0.000000    0.000000
   -4   -4    2    1    4    0.000000   -0.000000
   -4   -4    2    2    4    0.000000    0.000000
   -4   -4    2    3    4    0.000000   -0.000000
   -4   -4    2    4    4   -0.000001    0.000000
   -4   -4    2    5    4   -0.000000    0.000000
   -4   -4    2    1    5    0.000000   -0.000000
   -4   -4    2    2    5   -0.000000    0.000000
   -4   -4    2    3    5   -0.000000    0.000000
   -4   -4    2    4    5    0.000000   -0.000000
   -4   -4    2    5    5   -0.000002   -0.000000
   -4   -4    3    1    1    0.000000    0.000000
   -4   -4    3    2    1   -0.000000   -0.000000
   -4   -4    3    3    1    0.000000   -0.000000
   -4   -4    3    4    1    0.000000    0.000000
   -4   -4    3    5    1    0.000000    0.000000
   -4   -4    3    1    2   -0.000000    0.000000
   -4   -4    3    2    2   -0.000000   -0.000000
   -4   -4    3    3    2    0.000000    0.000000
   -4   -4    3    4    2   -0.000000    0.000000
   -4   -4    3    5    2    0.000000    0.000000
   -4   -4    3    1    3    0.000000    0.000000
   -4   -4    3    2    3    0.000000    0.000000
   -4   -4    3    3    3   -0.000000    0.000000
   -4   -4    3    4    3   -0.000000   -0.000000
   -4   -4    3    5    3    0.000000   -0.000000
   -4   -4    3    1    4    0.000000   -0.000000
   -4   -4    3    2    4   -0.000000   -0.000000
   -4   -4    3    3    4   -0.000000    0.000000
   -4   -4    3    4    4   -0.000000   -0.000000
   -4   -4    3    5    4    0.000000   -0.000000
   -4   -4    3    1    5    0.000000   -0.000000
   -4   -4    3    2    5    0.000000   -0.000000
   -4   -4    3    3    5    0.000000    0.000000
   -4   -4    3    4    5    0.000000   -0.000000
   -4   -4    3    5    5    0.000000    0.000000
   -4   -4    4    1    1   -0.000001   -0.000000
   -4   -4    4    2    1    0.000000    0.000000
   -4   -4    4    3    1   -0.000000    0.000000
   -4   -4    4    4    1    0.000000   -0.000000
   -4   -4    4    5    1   -0.000000   -0.000000
   -4   -4    4    1    2    0.000000   -0.000000
   -4   -4    4    2    2   -0.000002   -0.000000
   -4   -4    4    3    2    0.000000    0.000000
   -4   -4    4    4    2   -0.000000    0.000000
   -4   -4    4    5    2    0.000000    0.000000
   -4   -4    4    1    3   -0.000000   -0.000000
   -4   -4    4    2    3    0.000000   -0.000000
   -4   -4    4    3    3   -0.000002   -0.000000
   -4   -4    4    4    3   -0.000000   -0.000000
   -4   -4    4    5    3    0.000000    0.000000
   -4   -4    4    1    4    0.000000    0.000000
   -4   -4    4    2    4   -0.000000   -0.000000
   -4   -4    4    3    4   -0.000000    0.000000
   -4   -4    4    4    4   -0.000002   -0.000000
   -4   -4    4    5    4   -0.000000    0.000000
   -4   -4    4    1    5   -0.000000    0.000000
   -4   -4    4    2    5    0.000000   -0.000000
   -4   -4    4    3    5    0.000000   -0.000000
   -4   -4    4    4    5   -0.000000   -0.000000
   -4   -4    4    5    5   -0.000002   -0.000000
   -4   -3   -4    1    1   -0.000000   -0.000000
   -4   -3   -4    2    1    0.000000    0.000000
   -4   -3   -4    3    1    0.000000   -0.000000
   -4   -3   -4    4    1    0.000000    0.000000
   -4   -3   -4    5    1    0.000000   -0.000000
   -4   -3   -4    1    2    0.000000   -0.000000
   -4   -3   -4    2    2    0.000000    0.000000
   -4   -3   -4    3    2   -0.000000    0.000000
   -4   -3   -4    4    2    0.000000   -0.000000
   -4   -3   -4    5    2   -0.000000   -0.000000
   -4   -3   -4    1    3    0.000000    0.000000
   -4   -3   -4    2    3   -0.000000   -0.000000
   -4   -3   -4    3    3   -0.000000    0.000000
   -4   -3   -4    4    3    0.000000    0.000000
   -4   -3   -4    5    3   -0.000000   -0.000000
   -4   -3   -4    1    4    0.000000   -0.000000
   -4   -3   -4    2    4    0.000000    0.000000
   -4   -3   -4    3    4    0.000000   -0.000000
   -4   -3   -4    4    4    0.000000    0.000000
   -4   -3   -4    5    4    0.000000    0.000000
   -4   -3   -4    1    5    0.000000    0.000000
   -4   -3   -4    2    5   -0.000000    0.000000
   -4   -3   -4    3    5    0.000000   -0.000000
   -4   -3   -4    4    5    0.000000   -0.000000
   -4   -3   -4    5    5   -0.000000    0.000000
   -4   -3   -3    1    1    0.000000    0.000000
   -4   -3   -3    2    1    0.000000   -0.000000
   -4   -3   -3    3    1   -0.000000    0.000000
   -4   -3   -3    4    1    0.000000   -0.000000
   -4   -3   -3    5    1   -0.000000   -0.000000
   -4   -3   -3    1    2    0.000000   -0.000000
   -4   -3   -3    2    2   -0.000000   -0.000000
   -4   -3   -3    3    2   -0.000000   -0.000000
   -4   -3   -3    4    2    0.000000   -0.000000
   -4   -3   -3    5    2   -0.000001    0.000000
   -4   -3   -3    1    3   -0.000000   -0.000000
   -4   -3   -3    2    3   -0.000000    0.000000
   -4   -3   -3    3    3    0.000000    0.000000
   -4   -3   -3    4    3    0.000000   -0.000000
   -4   -3   -3    5    3    0.000000   -0.000000
   -4   -3   -3    1    4    0.000000    0.000000
   -4   -3   -3    2    4    0.000000    0.000000
   -4   -3   -3    3    4    0.000000    0.000000
   -4   -3   -3    4    4   -0.000000    0.000000
   -4   -3   -3    5    4   -0.000000   -0.000000
   -4   -3   -3    1    5   -0.000000    0.000000
   -4   -3   -3    2    5   -0.000001   -0.000000
   -4   -3   -3    3    5   -0.000000    0.000000
   -4   -3   -3    4    5   -0.000000    0.000000
   -4   -3   -3    5    5   -0.000000   -0.000000
   -4   -3   -2    1    1   -0.000000    0.000000
   -4   -3   -2    2    1    0.000000    0.000000
   -4   -3   -2    3    1   -0.000000   -0.000000
   -4   -3   -2    4    1    0.000000   -0.000000
   -4   -3   -2    5    1   -0.000000    0.000000
   -4   -3   -2    1    2    0.000000    0.000000
   -4   -3   -2    2    2   -0.000000   -0.000000
   -4   -3   -2    3    2    0.000000   -0.000000
   -4   -3   -2    4    2    0.000000    0.000000
   -4   -3   -2    5    2   -0.000001    0.000000
   -4   -3   -2    1    3   -0.000000    0.000000
   -4   -3   -2    2    3   -0.000000    0.000000
   -4   -3   -2    3    3   -0.000001   -0.000000
   -4   -3   -2    4    3    0.000000   -0.000000
   -4   -3   -2    5    3   -0.000000   -0.000000
   -4   -3   -2    1    4    0.000000    0.000000
   -4   -3   -2    2    4    0.000000    0.000000
   -4   -3   -2    3    4    0.000000    0.000000
   -4   -3   -2    4    4    0.000001   -0.000000
   -4   -3   -2    5    4   -0.000000   -0.000000
   -4   -3   -2    1    5    0.000000    0.000000
   -4   -3   -2    2    5   -0.000001    0.000000
   -4   -3   -2    3    5   -0.000000    0.000000
   -4   -3   -2    4    5   -0.000000    0.000000
   -4   -3   -2    5    5   -0.000001    0.000000
   -4   -3   -1    1    1   -0.000001    0.000000
   -4   -3   -1    2    1    0.000000   -0.000000
   -4   -3   -1    3    1   -0.000000   -0.000000
   -4   -3   -1    4    1   -0.000000    0.000000
   -4   -3   -1    5    1   -0.000000    0.000000
   -4   -3   -1    1    2   -0.000000    0.000000
   -4   -3   -1    2    2   -0.000001   -0.000000
   -4   -3   -1    3    2    0.000000   -0.000000
   -4   -3   -1    4    2   -0.000000   -0.000000
   -4   -3   -1    5    2   -0.000003    0.000000
   -4   -3   -1    1    3   -0.000000    0.000000
   -4   -3   -1    2    3    0.000000    0.000000
   -4   -3   -1    3    3   -0.000000   -0.000000
   -4   -3   -1    4    3    0.000001   -0.000000
   -4   -3   -1    5    3   -0.000000   -0.000000
   -4   -3   -1    1    4   -0.000000    0.000000
   -4   -3   -1    2    4   -0.000000    0.000000
   -4   -3   -1    3    4    0.000001    0.000000
   -4   -3   -1    4    4    0.000004   -0.000000
   -4   -3   -1    5    4   -0.000000   -0.000000
   -4   -3   -1    1    5    0.000000   -0.000000
   -4   -3   -1    2    5   -0.000003    0.000000
   -4   -3   -1    3    5   -0.000000    0.000000
   -4   -3   -1    4    5   -0.000000    0.000000
   -4   -3   -1    5    5   -0.000010    0.000000
   -4   -3    0    1    1   -0.000012    0.000000
   -4   -3    0    2    1   -0.000000   -0.000000
   -4   -3    0    3    1   -0.000000   -0.000000
   -4   -3    0    4    1    0.000005   -0.000000
   -4   -3    0    5    1    0.000000    0.000000
   -4   -3    0    1    2    0.000000    0.000000
   -4   -3    0    2    2    0.000001    0.000000
   -4   -3    0    3    2   -0.000000    0.000000
   -4   -3    0    4    2    0.000000    0.000000
   -4   -3    0    5    2   -0.000000    0.000000
   -4   -3    0    1    3   -0.000000    0.000000
   -4   -3    0    2    3    0.000000    0.000000
   -4   -3    0    3    3    0.000000   -0.000000
   -4   -3    0    4    3    0.000000   -0.000000
   -4   -3    0    5    3   -0.000000    0.000000
   -4   -3    0    1    4    0.000005    0.000000
   -4   -3    0    2    4   -0.000000    0.000000
   -4   -3    0    3    4   -0.000000   -0.000000
   -4   -3    0    4    4    0.000019   -0.000000
   -4   -3    0    5    4    0.000000   -0.000000
   -4   -3    0    1    5    0.000000   -0.000000
   -4   -3    0    2    5    0.000000   -0.000000
   -4   -3    0    3    5    0.000000    0.000000
   -4   -3    0    4    5   -0.000000    0.000000
   -4   -3    0    5    5   -0.000088    0.000000
   -4   -3    1    1    1   -0.000001   -0.000000
   -4   -3    1    2    1   -0.000000   -0.000000
   -4   -3    1    3    1    0.000000    0.000000
   -4   -3    1    4    1   -0.000000   -0.000000
   -4   -3    1    5    1    0.000000    0.000000
   -4   -3    1    1    2   -0.000000    0.000000
   -4   -3    1    2    2   -0.000001    0.000000
   -4   -3    1    3    2   -0.000000    0.000000
   -4   -3    1    4    2    0.000000   -0.000000
   -4   -3    1    5    2    0.000003   -0.000000
   -4   -3    1    1    3    0.000000   -0.000000
   -4   -3    1    2    3   -0.000000   -0.000000
   -4   -3    1    3    3   -0.000000   -0.000000
   -4   -3    1    4    3   -0.000001   -0.000000
   -4   -3    1    5    3    0.000000    0.000000
   -4   -3    1    1    4   -0.000000    0.000000
   -4   -3    1    2    4   -0.000000    0.000000
   -4   -3    1    3    4   -0.000001   -0.000000
   -4   -3    1    4    4    0.000004    0.000000
   -4   -3    1    5    4   -0.000000    0.000000
   -4   -3    1    1    5    0.000000   -0.000000
   -4   -3    1    2    5    0.000003   -0.000000
   -4   -3    1    3    5    0.000000   -0.000000
   -4   -3    1    4    5    0.000000   -0.000000
   -4   -3    1    5    5   -0.000010   -0.000000
   -4   -3    2    1    1   -0.000000    0.000000
   -4   -3    2    2    1   -0.000000   -0.000000
   -4   -3    2    3    1    0.000000    0.000000
   -4   -3    2    4    1    0.000000   -0.000000
   -4   -3    2    5    1    0.000000    0.000000
   -4   -3    2    1    2   -0.000000    0.000000
   -4   -3    2    2    2   -0.000000   -0.000000
   -4   -3    2    3    2   -0.000000    0.000000
   -4   -3    2    4    2   -0.000000   -0.000000
   -4   -3    2    5    2    0.000001    0.000000
   -4   -3    2    1    3    0.000000   -0.000000
   -4   -3    2    2    3   -0.000000   -0.000000
   -4   -3    2    3    3   -0.000001    0.000000
   -4   -3    2    4    3   -0.000000   -0.000000
   -4   -3    2    5    3    0.000000    0.000000
   -4   -3    2    1    4    0.000000    0.000000
   -4   -3    2    2    4    0.000000    0.000000
   -4   -3    2    3    4   -0.000000    0.000000
   -4   -3    2    4    4    0.000001   -0.000000
   -4   -3    2    5    4   -0.000000   -0.000000
   -4   -3    2    1    5   -0.000000   -0.000000
   -4   -3    2    2    5    0.000001   -0.000000
   -4   -3    2    3    5    0.000000   -0.000000
   -4   -3    2    4    5   -0.000000    0.000000
   -4   -3    2    5    5   -0.000001    0.000000
   -4   -3    3    1    1    0.000000    0.000000
   -4   -3    3    2    1   -0.000000    0.000000
   -4   -3    3    3    1    0.000000    0.000000
   -4   -3    3    4    1    0.000000   -0.000000
   -4   -3    3    5    1   -0.000000   -0.000000
   -4   -3    3    1    2   -0.000000    0.000000
   -4   -3    3    2    2   -0.000000    0.000000
   -4   -3    3    3    2   -0.000000    0.000000
   -4   -3    3    4    2    0.000000   -0.000000
   -4   -3    3    5    2    0.000001   -0.000000
   -4   -3    3    1    3    0.000000   -0.000000
   -4   -3    3    2    3   -0.000000   -0.000000
   -4   -3    3    3    3    0.000000    0.000000
   -4   -3    3    4    3   -0.000000   -0.000000
   -4   -3    3    5    3    0.000000    0.000000
   -4   -3    3    1    4    0.000000    0.000000
   -4   -3    3    2    4    0.000000    0.000000
   -4   -3    3    3    4   -0.000000    0.000000
   -4   -3    3    4    4   -0.000000   -0.000000
   -4   -3    3    5    4   -0.000000   -0.000000
   -4   -3    3    1    5   -0.000000    0.000000
   -4   -3    3    2    5    0.000001    0.000000
   -4   -3    3    3    5    0.000000   -0.000000
   -4   -3    3    4    5   -0.000000    0.000000
   -4   -3    3    5    5   -0.000000   -0.000000
   -4   -3    4    1    1   -0.000000   -0.000000
   -4   -3    4    2    1    0.000000    0.000000
   -4   -3    4    3    1    0.000000   -0.000000
   -4   -3    4    4    1    0.000000    0.000000
   -4   -3    4    5    1    0.000000   -0.000000
   -4   -3    4    1    2    0.000000   -0.000000
   -4   -3    4    2    2    0.000000    0.000000
   -4   -3    4    3    2   -0.000000    0.000000
   -4   -3    4    4    2    0.000000   -0.000000
   -4   -3    4    5    2   -0.000000   -0.000000
   -4   -3    4    1    3    0.000000    0.000000
   -4   -3    4    2    3   -0.000000   -0.000000
   -4   -3    4    3    3   -0.000000    0.000000
   -4   -3    4    4    3    0.000000    0.000000
   -4   -3    4    5    3   -0.000000   -0.000000
   -4   -3    4    1    4    0.000000   -0.000000
   -4   -3    4    2    4    0.000000    0.000000
   -4   -3    4    3    4    0.000000   -0.000000
   -4   -3    4    4    4    0.000000    0.000000
   -4   -3    4    5    4    0.000000    0.000000
   -4   -3    4    1    5    0.000000    0.000000
   -4   -3    4    2    5   -0.000000    0.000000
   -4   -3    4    3    5    0.000000   -0.000000
   -4   -3    4    4    5    0.000000   -0.000000
   -4   -3    4    5    5   -0.000000    0.000000
   -4   -2   -4    1    1   -0.000001    0.000000
   -4   -2   -4    2    1   -0.000000    0.000000
   -4   -2   -4    3    1    0.000000   -0.000000
   -4   -2   -4    4    1   -0.000001    0.000000
   -4   -2   -4    5    1    0.000000    0.000000
   -4   -2   -4    1    2   -0.000000   -0.000000
   -4   -2   -4    2    2   -0.000002   -0.000000
   -4   -2   -4    3    2    0.000000   -0.000000
   -4   -2   -4    4    2   -0.000000   -0.000000
   -4   -2   -4    5    2    0.000000    0.000000
   -4   -2   -4    1    3    0.000000    0.000000
   -4   -2   -4    2    3    0.000000    0.000000
   -4   -2   -4    3    3   -0.000001   -0.000000
   -4   -2   -4    4    3    0.000000    0.000000
   -4   -2   -4    5    3   -0.000000    0.000000
   -4   -2   -4    1    4   -0.000001   -0.000000
   -4   -2   -4    2    4   -0.000000    0.000000
   -4   -2   -4    3    4    0.000000   -0.000000
   -4   -2   -4    4    4   -0.000002    0.000000
   -4   -2   -4    5    4    0.000000    0.000000
   -4   -2   -4    1    5    0.000000   -0.000000
   -4   -2   -4    2    5    0.000000   -0.000000
   -4   -2   -4    3    5    0.000000    0.000000
   -4   -2   -4    4    5   -0.000000    0.000000
   -4   -2   -4    5    5   -0.000001   -0.000000
   -4   -2   -3    1    1    0.000001   -0.000000
   -4   -2   -3    2    1   -0.000000    0.000000
   -4   -2   -3    3    1   -0.000000    0.000000
   -4   -2   -3    4    1   -0.000000    0.000000
   -4   -2   -3    5    1    0.000000   -0.000000
   -4   -2   -3    1    2   -0.000000   -0.000000
   -4   -2   -3    2    2   -0.000001   -0.000000
   -4   -2   -3    3    2   -0.000000   -0.000000
   -4   -2   -3    4    2   -0.000000   -0.000000
   -4   -2   -3    5    2   -0.000001   -0.000000
   -4   -2   -3    1    3   -0.000000   -0.000000
   -4   -2   -3    2    3   -0.000000    0.000000
   -4   -2   -3    3    3   -0.000001    0.000000
   -4   -2   -3    4    3    0.000000    0.000000
   -4   -2   -3    5    3    0.000000    0.000000
   -4   -2   -3    1    4   -0.000000   -0.000000
   -4   -2   -3    2    4   -0.000000    0.000000
   -4   -2   -3    3    4    0.000000    0.000000
   -4   -2   -3    4    4   -0.000000    0.000000
   -4   -2   -3    5    4    0.000000   -0.000000
   -4   -2   -3    1    5    0.000000   -0.000000
   -4   -2   -3    2    5   -0.000001   -0.000000
   -4   -2   -3    3    5    0.000000   -0.000000
   -4   -2   -3    4    5    0.000000    0.000000
   -4   -2   -3    5    5   -0.000000    0.000000
   -4   -2   -2    1    1    0.000001    0.000000
   -4   -2   -2    2    1    0.000000   -0.000000
   -4   -2   -2    3    1   -0.000001    0.000000
   -4   -2   -2    4    1   -0.000001   -0.000000
   -4   -2   -2    5    1   -0.000000   -0.000000
   -4   -2   -2    1    2    0.000000   -0.000000
   -4   -2   -2    2    2    0.000001    0.000000
   -4   -2   -2    3    2   -0.000000   -0.000000
   -4   -2   -2    4    2    0.000000   -0.000000
   -4   -2   -2    5    2   -0.000006    0.000000
   -4   -2   -2    1    3   -0.000001   -0.000000
   -4   -2   -2    2    3   -0.000000    0.000000
   -4   -2   -2    3    3    0.000001    0.000000
   -4   -2   -2    4    3    0.000001   -0.000000
   -4   -2   -2    5    3   -0.000000   -0.000000
   -4   -2   -2    1    4   -0.000001    0.000000
   -4   -2   -2    2    4   -0.000000   -0.000000
   -4   -2   -2    3    4    0.000001    0.000000
   -4   -2   -2    4    4    0.000002   -0.000000
   -4   -2   -2    5    4   -0.000000   -0.000000
   -4   -2   -2    1    5   -0.000000    0.000000
   -4   -2   -2    2    5   -0.000006   -0.000000
   -4   -2   -2    3    5    0.000000    0.000000
   -4   -2   -2    4    5    0.000000    0.000000
   -4   -2   -2    5    5    0.000001   -0.000000
   -4   -2   -1    1    1   -0.000003    0.000000
   -4   -2   -1    2    1    0.000000    0.000000
   -4   -2   -1    3    1   -0.000000   -0.000000
   -4   -2   -1    4    1    0.000002   -0.000000
   -4   -2   -1    5    1    0.000000   -0.000000
   -4   -2   -1    1    2    0.000000    0.000000
   -4   -2   -1    2    2    0.000000    0.000000
   -4   -2   -1    3    2   -0.000000   -0.000000
   -4   -2   -1    4    2   -0.000000   -0.000000
   -4   -2   -1    5    2   -0.000016    0.000000
   -4   -2   -1    1    3   -0.000000    0.000000
   -4   -2   -1    2    3   -0.000000    0.000000
   -4   -2   -1    3    3    0.000000   -0.000000
   -4   -2   -1    4    3    0.000001   -0.000000
   -4   -2   -1    5    3   -0.000000   -0.000000
   -4   -2   -1    1    4    0.000002    0.000000
   -4   -2   -1    2    4    0.000000   -0.000000
   -4   -2   -1    3    4    0.000001   -0.000000
   -4   -2   -1    4    4    0.000001   -0.000000
   -4   -2   -1    5    4    0.000000    0.000000
   -4   -2   -1    1    5   -0.000000   -0.000000
   -4   -2   -1    2    5   -0.000016    0.000000
   -4   -2   -1    3    5   -0.000000    0.000000
   -4   -2   -1    4    5    0.000000    0.000000
   -4   -2   -1    5    5   -0.000009   -0.000000
   -4   -2    0    1    1   -0.000035   -0.000000
   -4   -2    0    2    1    0.000000   -0.000000
   -4   -2    0    3    1    0.000000   -0.000000
   -4   -2    0    4    1    0.000031   -0.000000
   -4   -2    0    5    1   -0.000000    0.000000
   -4   -2    0    1    2   -0.000000    0.000000
   -4   -2    0    2    2    0.000002    0.000000
   -4   -2    0    3    2   -0.000000   -0.000000
   -4   -2    0    4    2    0.000000    0.000000
   -4   -2    0    5    2    0.000000    0.000000
   -4   -2    0    1    3    0.000000    0.000000
   -4   -2    0    2    3   -0.000000   -0.000000
   -4   -2    0    3    3   -0.000000   -0.000000
   -4   -2    0    4    3    0.000000   -0.000000
   -4   -2    0    5    3   -0.000000    0.000000
   -4   -2    0    1    4    0.000031    0.000000
   -4   -2    0    2    4    0.000000    0.000000
   -4   -2    0    3    4    0.000000   -0.000000
   -4   -2    0    4    4    0.000002    0.000000
   -4   -2    0    5    4   -0.000000   -0.000000
   -4   -2    0    1    5    0.000000   -0.000000
   -4   -2    0    2    5    0.000000   -0.000000
   -4   -2    0    3    5    0.000000    0.000000
   -4   -2    0    4    5    0.000000   -0.000000
   -4   -2    0    5    5   -0.000110    0.000000
   -4   -2    1    1    1   -0.000003   -0.000000
   -4   -2    1    2    1   -0.000000   -0.000000
   -4   -2    1    3    1    0.000000    0.000000
   -4   -2    1    4    1    0.000002   -0.000000
   -4   -2    1    5    1    0.000000   -0.000000
   -4   -2    1    1    2    0.000000   -0.000000
   -4   -2    1    2    2    0.000000    0.000000
   -4   -2    1    3    2   -0.000000    0.000000
   -4   -2    1    4    2    0.000000    0.000000
   -4   -2    1    5    2    0.000016   -0.000000
   -4   -2    1    1    3    0.000000   -0.000000
   -4   -2    1    2    3   -0.000000   -0.000000
   -4   -2    1    3    3    0.000000   -0.000000
   -4   -2    1    4    3   -0.000001   -0.000000
   -4   -2    1    5    3    0.000000    0.000000
   -4   -2    1    1    4    0.000002    0.000000
   -4   -2    1    2    4    0.000000    0.000000
   -4   -2    1    3    4   -0.000001    0.000000
   -4   -2    1    4    4    0.000001    0.000000
   -4   -2    1    5    4    0.000000   -0.000000
   -4   -2    1    1    5   -0.000000    0.000000
   -4   -2    1    2    5    0.000016    0.000000
   -4   -2    1    3    5    0.000000   -0.000000
   -4   -2    1    4    5    0.000000    0.000000
   -4   -2    1    5    5   -0.000009    0.000000
   -4   -2    2    1    1    0.000001   -0.000000
   -4   -2    2    2    1    0.000000    0.000000
   -4   -2    2    3    1    0.000001    0.000000
   -4   -2    2    4    1   -0.000001   -0.000000
   -4   -2    2    5    1    0.000000   -0.000000
   -4   -2    2    1    2   -0.000000   -0.000000
   -4   -2    2    2    2    0.000001   -0.000000
   -4   -2    2    3    2   -0.000000    0.000000
   -4   -2    2    4    2    0.000000   -0.000000
   -4   -2    2    5    2    0.000006   -0.000000
   -4   -2    2    1    3    0.000001   -0.000000
   -4   -2    2    2    3   -0.000000   -0.000000
   -4   -2    2    3    3    0.000001   -0.000000
   -4   -2    2    4    3   -0.000001   -0.000000
   -4   -2    2    5    3    0.000000    0.000000
   -4   -2    2    1    4   -0.000001    0.000000
   -4   -2    2    2    4    0.000000    0.000000
   -4   -2    2    3    4   -0.000001    0.000000
   -4   -2    2    4    4    0.000002    0.000000
   -4   -2    2    5    4    0.000000   -0.000000
   -4   -2    2    1    5    0.000000   -0.000000
   -4   -2    2    2    5    0.000006    0.000000
   -4   -2    2    3    5    0.000000   -0.000000
   -4   -2    2    4    5    0.000000    0.000000
   -4   -2    2    5    5    0.000001    0.000000
   -4   -2    3    1    1    0.000001    0.000000
   -4   -2    3    2    1    0.000000    0.000000
   -4   -2    3    3    1    0.000000   -0.000000
   -4   -2    3    4    1   -0.000000    0.000000
   -4   -2    3    5    1   -0.000000   -0.000000
   -4   -2    3    1    2    0.000000   -0.000000
   -4   -2    3    2    2   -0.000001    0.000000
   -4   -2    3    3    2   -0.000000    0.000000
   -4   -2    3    4    2    0.000000   -0.000000
   -4   -2    3    5    2    0.000001   -0.000000
   -4   -2    3    1    3    0.000000    0.000000
   -4   -2    3    2    3   -0.000000   -0.000000
   -4   -2    3    3    3   -0.000001   -0.000000
   -4   -2    3    4    3   -0.000000   -0.000000
   -4   -2    3    5    3   -0.000000   -0.000000
   -4   -2    3    1    4   -0.000000   -0.000000
   -4   -2    3    2    4    0.000000    0.000000
   -4   -2    3    3    4   -0.000000    0.000000
   -4   -2    3    4    4   -0.000000   -0.000000
   -4   -2    3    5    4   -0.000000   -0.000000
   -4   -2    3    1    5    0.000000    0.000000
   -4   -2    3    2    5    0.000001    0.000000
   -4   -2    3    3    5    0.000000    0.000000
   -4   -2    3    4    5   -0.000000    0.000000
   -4   -2    3    5    5   -0.000000    0.000000
   -4   -2    4    1    1   -0.000001    0.000000
   -4   -2    4    2    1   -0.000000    0.000000
   -4   -2    4    3    1    0.000000   -0.000000
   -4   -2    4    4    1   -0.000001    0.000000
   -4   -2    4    5    1    0.000000    0.000000
   -4   -2    4    1    2   -0.000000   -0.000000
   -4   -2    4    2    2   -0.000002   -0.000000
   -4   -2    4    3    2    0.000000   -0.000000
   -4   -2    4    4    2   -0.000000   -0.000000
   -4   -2    4    5    2    0.000000    0.000000
   -4   -2    4    1    3    0.000000    0.000000
   -4   -2    4    2    3    0.000000    0.000000
   -4   -2    4    3    3   -0.000001   -0.000000
   -4   -2    4    4    3    0.000000    0.000000
   -4   -2    4    5    3   -0.000000    0.000000
   -4   -2    4    1    4   -0.000001   -0.000000
   -4   -2    4    2    4   -0.000000    0.000000
   -4   -2    4    3    4    0.000000   -0.000000
   -4   -2    4    4    4   -0.000002    0.000000
   -4   -2    4    5    4    0.000000    0.000000
   -4   -2    4    1    5    0.000000   -0.000000
   -4   -2    4    2    5    0.000000   -0.000000
   -4   -2    4    3    5    0.000000    0.000000
   -4   -2    4    4    5   -0.000000    0.000000
   -4   -2    4    5    5   -0.000001   -0.000000
   -4   -1   -4    1    1    0.000002    0.000000
   -4   -1   -4    2    1   -0.000000    0.000000
   -4   -1   -4    3    1    0.000000   -0.000000
   -4   -1   -4    4    1   -0.000002    0.000000
   -4   -1   -4    5    1    0.000000    0.000000
   -4   -1   -4    1    2   -0.000000   -0.000000
   -4   -1   -4    2    2   -0.000010   -0.000000
   -4   -1   -4    3    2    0.000000    0.000000
   -4   -1   -4    4    2   -0.000000   -0.000000
   -4   -1   -4    5    2    0.000000    0.000000
   -4   -1   -4    1    3    0.000000    0.000000
   -4   -1   -4    2    3    0.000000    0.000000
   -4   -1   -4    3    3    0.000001   -0.000000
   -4   -1   -4    4    3    0.000000    0.000000
   -4   -1   -4    5    3   -0.000000   -0.000000
   -4   -1   -4    1    4   -0.000002   -0.000000
   -4   -1   -4    2    4    0.000000    0.000000
   -4   -1   -4    3    4    0.000000   -0.000000
   -4   -1   -4    4    4   -0.000001    0.000000
   -4   -1   -4    5    4    0.000000    0.000000
   -4   -1   -4    1    5    0.000000    0.000000
   -4   -1   -4    2    5   -0.000000    0.000000
   -4   -1   -4    3    5   -0.000000   -0.000000
   -4   -1   -4    4    5    0.000000    0.000000
   -4   -1   -4    5    5    0.000001   -0.000000
   -4   -1   -3    1    1    0.000002   -0.000000
   -4   -1   -3    2    1   -0.000000    0.000000
   -4   -1   -3    3    1   -0.000001    0.000000
   -4   -1   -3    4    1   -0.000003    0.000000
   -4   -1   -3    5    1   -0.000000   -0.000000
   -4   -1   -3    1    2   -0.000000   -0.000000
   -4   -1   -3    2    2   -0.000010    0.000000
   -4   -1   -3    3    2    0.000000   -0.000000
   -4   -1   -3    4    2   -0.000000   -0.000000
   -4   -1   -3    5    2   -0.000003    0.000000
   -4   -1   -3    1    3   -0.000001   -0.000000
   -4   -1   -3    2    3    0.000000    0.000000
   -4   -1   -3    3    3   -0.000000    0.000000
   -4   -1   -3    4    3    0.000001    0.000000
   -4   -1   -3    5    3    0.000000    0.000000
   -4   -1   -3    1    4   -0.000003   -0.000000
   -4   -1   -3    2    4   -0.000000    0.000000
   -4   -1   -3    3    4    0.000001    0.000000
   -4   -1   -3    4    4    0.000000   -0.000000
   -4   -1   -3    5    4    0.000000   -0.000000
   -4   -1   -3    1    5   -0.000000    0.000000
   -4   -1   -3    2    5   -0.000003    0.000000
   -4   -1   -3    3    5    0.000000   -0.000000
   -4   -1   -3    4    5   -0.000000   -0.000000
   -4   -1   -3    5    5   -0.000001    0.000000
   -4   -1   -2    1    1    0.000002   -0.000000
   -4   -1   -2    2    1   -0.000000    0.000000
   -4   -1   -2    3    1   -0.000001    0.000000
   -4   -1   -2    4    1   -0.000001    0.000000
   -4   -1   -2    5    1    0.000000    0.000000
   -4   -1   -2    1    2    0.000000    0.000000
   -4   -1   -2    2    2   -0.000008    0.000000
   -4   -1   -2    3    2   -0.000000   -0.000000
   -4   -1   -2    4    2   -0.000000    0.000000
   -4   -1   -2    5    2   -0.000016    0.000000
   -4   -1   -2    1    3   -0.000001   -0.000000
   -4   -1   -2    2    3   -0.000000    0.000000
   -4   -1   -2    3    3    0.000000    0.000000
   -4   -1   -2    4    3    0.000001   -0.000000
   -4   -1   -2    5    3    0.000000    0.000000
   -4   -1   -2    1    4   -0.000001   -0.000000
   -4   -1   -2    2    4    0.000000    0.000000
   -4   -1   -2    3    4    0.000001   -0.000000
   -4   -1   -2    4    4   -0.000003   -0.000000
   -4   -1   -2    5    4    0.000000   -0.000000
   -4   -1   -2    1    5    0.000000   -0.000000
   -4   -1   -2    2    5   -0.000016    0.000000
   -4   -1   -2    3    5    0.000000   -0.000000
   -4   -1   -2    4    5   -0.000000   -0.000000
   -4   -1   -2    5    5    0.000000    0.000000
   -4   -1   -1    1    1   -0.000004   -0.000000
   -4   -1   -1    2    1    0.000000    0.000000
   -4   -1   -1    3    1    0.000001    0.000000
   -4   -1   -1    4    1    0.000008   -0.000000
   -4   -1   -1    5    1   -0.000000   -0.000000
   -4   -1   -1    1    2    0.000000    0.000000
   -4   -1   -1    2    2    0.000006   -0.000000
   -4   -1   -1    3    2   -0.000000    0.000000
   -4   -1   -1    4    2   -0.000000   -0.000000
   -4   -1   -1    5    2   -0.000044    0.000000
   -4   -1   -1    1    3    0.000001   -0.000000
   -4   -1   -1    2    3   -0.000000    0.000000
   -4   -1   -1    3    3   -0.000000    0.000000
   -4   -1   -1    4    3   -0.000002    0.000000
   -4   -1   -1    5    3   -0.000000    0.000000
   -4   -1   -1    1    4    0.000008    0.000000
   -4   -1   -1    2    4   -0.000000   -0.000000
   -4   -1   -1    3    4   -0.000002    0.000000
   -4   -1   -1    4    4   -0.000014    0.000000
   -4   -1   -1    5    4   -0.000000   -0.000000
   -4   -1   -1    1    5   -0.000000   -0.000000
   -4   -1   -1    2    5   -0.000044    0.000000
   -4   -1   -1    3    5    0.000000   -0.000000
   -4   -1   -1    4    5    0.000000    0.000000
   -4   -1   -1    5    5    0.000006   -0.000000
   -4   -1    0    1    1   -0.000106    0.000000
   -4   -1    0    2    1    0.000000   -0.000000
   -4   -1    0    3    1    0.000000    0.000000
   -4   -1    0    4    1    0.000139    0.000000
   -4   -1    0    5    1    0.000000    0.000000
   -4   -1    0    1    2   -0.000000   -0.000000
   -4   -1    0    2    2    0.000009    0.000000
   -4   -1    0    3    2   -0.000000    0.000000
   -4   -1    0    4    2   -0.000000   -0.000000
   -4   -1    0    5    2   -0.000000   -0.000000
   -4   -1    0    1    3   -0.000000    0.000000
   -4   -1    0    2    3   -0.000000    0.000000
   -4   -1    0    3    3   -0.000001    0.000000
   -4   -1    0    4    3   -0.000000   -0.000000
   -4   -1    0    5    3   -0.000000    0.000000
   -4   -1    0    1    4    0.000139   -0.000000
   -4   -1    0    2    4   -0.000000   -0.000000
   -4   -1    0    3    4   -0.000000    0.000000
   -4   -1    0    4    4   -0.000159   -0.000000
   -4   -1    0    5    4   -0.000000    0.000000
   -4   -1    0    1    5    0.000000    0.000000
   -4   -1    0    2    5   -0.000000   -0.000000
   -4   -1    0    3    5    0.000000    0.000000
   -4   -1    0    4    5   -0.000000    0.000000
   -4   -1    0    5    5   -0.000047   -0.000000
   -4   -1    1    1    1   -0.000004   -0.000000
   -4   -1    1    2    1   -0.000000    0.000000
   -4   -1    1    3    1   -0.000001    0.000000
   -4   -1    1    4    1    0.000008   -0.000000
   -4   -1    1    5    1    0.000000    0.000000
   -4   -1    1    1    2    0.000000    0.000000
   -4   -1    1    2    2    0.000006   -0.000000
   -4   -1    1    3    2   -0.000000    0.000000
   -4   -1    1    4    2    0.000000    0.000000
   -4   -1    1    5    2    0.000044   -0.000000
   -4   -1    1    1    3   -0.000001   -0.000000
   -4   -1    1    2    3   -0.000000    0.000000
   -4   -1    1    3    3   -0.000000    0.000000
   -4   -1    1    4    3    0.000002   -0.000000
   -4   -1    1    5    3    0.000000    0.000000
   -4   -1    1    1    4    0.000008    0.000000
   -4   -1    1    2    4   -0.000000   -0.000000
   -4   -1    1    3    4    0.000002   -0.000000
   -4   -1    1    4    4   -0.000014    0.000000
   -4   -1    1    5    4   -0.000000    0.000000
   -4   -1    1    1    5    0.000000   -0.000000
   -4   -1    1    2    5    0.000044    0.000000
   -4   -1    1    3    5    0.000000    0.000000
   -4   -1    1    4    5   -0.000000    0.000000
   -4   -1    1    5    5    0.000006    0.000000
   -4   -1    2    1    1    0.000002   -0.000000
   -4   -1    2    2    1    0.000000   -0.000000
   -4   -1    2    3    1    0.000001    0.000000
   -4   -1    2    4    1   -0.000001   -0.000000
   -4   -1    2    5    1   -0.000000   -0.000000
   -4   -1    2    1    2   -0.000000   -0.000000
   -4   -1    2    2    2   -0.000008   -0.000000
   -4   -1    2    3    2   -0.000000    0.000000
   -4   -1    2    4    2   -0.000000    0.000000
   -4   -1    2    5    2    0.000016   -0.000000
   -4   -1    2    1    3    0.000001   -0.000000
   -4   -1    2    2    3   -0.000000   -0.000000
   -4   -1    2    3    3    0.000000   -0.000000
   -4   -1    2    4    3   -0.000001   -0.000000
   -4   -1    2    5    3    0.000000    0.000000
   -4   -1    2    1    4   -0.000001    0.000000
   -4   -1    2    2    4   -0.000000   -0.000000
   -4   -1    2    3    4   -0.000001    0.000000
   -4   -1    2    4    4   -0.000003    0.000000
   -4   -1    2    5    4   -0.000000   -0.000000
   -4   -1    2    1    5   -0.000000    0.000000
   -4   -1    2    2    5    0.000016    0.000000
   -4   -1    2    3    5    0.000000   -0.000000
   -4   -1    2    4    5   -0.000000    0.000000
   -4   -1    2    5    5    0.000000    0.000000
   -4   -1    3    1    1    0.000002    0.000000
   -4   -1    3    2    1    0.000000    0.000000
   -4   -1    3    3    1    0.000001   -0.000000
   -4   -1    3    4    1   -0.000003    0.000000
   -4   -1    3    5    1   -0.000000    0.000000
   -4   -1    3    1    2    0.000000   -0.000000
   -4   -1    3    2    2   -0.000010    0.000000
   -4   -1    3    3    2    0.000000    0.000000
   -4   -1    3    4    2    0.000000   -0.000000
   -4   -1    3    5    2    0.000003    0.000000
   -4   -1    3    1    3    0.000001    0.000000
   -4   -1    3    2    3    0.000000   -0.000000
   -4   -1    3    3    3   -0.000000   -0.000000
   -4   -1    3    4    3   -0.000001   -0.000000
   -4   -1    3    5    3   -0.000000   -0.000000
   -4   -1    3    1    4   -0.000003   -0.000000
   -4   -1    3    2    4    0.000000    0.000000
   -4   -1    3    3    4   -0.000001    0.000000
   -4   -1    3    4    4    0.000000   -0.000000
   -4   -1    3    5    4   -0.000000   -0.000000
   -4   -1    3    1    5    0.000000   -0.000000
   -4   -1    3    2    5    0.000003    0.000000
   -4   -1    3    3    5    0.000000    0.000000
   -4   -1    3    4    5    0.000000    0.000000
   -4   -1    3    5    5   -0.000001   -0.000000
   -4   -1    4    1    1    0.000002    0.000000
   -4   -1    4    2    1   -0.000000    0.000000
   -4   -1    4    3    1    0.000000   -0.000000
   -4   -1    4    4    1   -0.000002    0.000000
   -4   -1    4    5    1    0.000000    0.000000
   -4   -1    4    1    2   -0.000000   -0.000000
   -4   -1    4    2    2   -0.000010   -0.000000
   -4   -1    4    3    2    0.000000    0.000000
   -4   -1    4    4    2   -0.000000   -0.000000
   -4   -1    4    5    2    0.000000    0.000000
   -4   -1    4    1    3    0.000000    0.000000
   -4   -1    4    2    3    0.000000    0.000000
   -4   -1    4    3    3    0.000001   -0.000000
   -4   -1    4    4    3    0.000000    0.000000
   -4   -1    4    5    3   -0.000000   -0.000000
   -4   -1    4    1    4   -0.000002   -0.000000
   -4   -1    4    2    4    0.000000    0.000000
   -4   -1    4    3    4    0.000000   -0.000000
   -4   -1    4    4    4   -0.000001    0.000000
   -4   -1    4    5    4    0.000000    0.000000
   -4   -1    4    1    5    0.000000    0.000000
   -4   -1    4    2    5   -0.000000    0.000000
   -4   -1    4    3    5   -0.000000   -0.000000
   -4   -1    4    4    5    0.000000    0.000000
   -4   -1    4    5    5    0.000001   -0.000000
   -4    0   -4    1    1    0.000009    0.000000
   -4    0   -4    2    1    0.000000    0.000000
   -4    0   -4    3    1    0.000000   -0.000000
   -4    0   -4    4    1   -0.000010    0.000000
   -4    0   -4    5    1    0.000000    0.000000
   -4    0   -4    1    2    0.000000   -0.000000
   -4    0   -4    2    2   -0.000069    0.000000
   -4    0   -4    3    2    0.000000   -0.000000
   -4    0   -4    4    2   -0.000000   -0.000000
   -4    0   -4    5    2    0.000000   -0.000000
   -4    0   -4    1    3    0.000000    0.000000
   -4    0   -4    2    3    0.000000    0.000000
   -4    0   -4    3    3   -0.000000   -0.000000
   -4    0   -4    4    3    0.000000    0.000000
   -4    0   -4    5    3    0.000000    0.000000
   -4    0   -4    1    4   -0.000010   -0.000000
   -4    0   -4    2    4   -0.000000    0.000000
   -4    0   -4    3    4    0.000000   -0.000000
   -4    0   -4    4    4   -0.000003   -0.000000
   -4    0   -4    5    4    0.000000    0.000000
   -4    0   -4    1    5    0.000000   -0.000000
   -4    0   -4    2    5    0.000000    0.000000
   -4    0   -4    3    5    0.000000   -0.000000
   -4    0   -4    4    5    0.000000   -0.000000
   -4    0   -4    5    5   -0.000000    0.000000
   -4    0   -3    1    1    0.000015   -0.000000
   -4    0   -3    2    1   -0.000000    0.000000
   -4    0   -3    3    1    0.000000    0.000000
   -4    0   -3    4    1   -0.000011    0.000000
   -4    0   -3    5    1    0.000000    0.000000
   -4    0   -3    1    2   -0.000000   -0.000000
   -4    0   -3    2    2   -0.000088   -0.000000
   -4    0   -3    3    2    0.000000    0.000000
   -4    0   -3    4    2   -0.000000    0.000000
   -4    0   -3    5    2   -0.000000   -0.000000
   -4    0   -3    1    3   -0.000000    0.000000
   -4    0   -3    2    3    0.000000    0.000000
   -4    0   -3    3    3    0.000000    0.000000
   -4    0   -3    4    3   -0.000000    0.000000
   -4    0   -3    5    3    0.000000    0.000000
   -4    0   -3    1    4   -0.000011   -0.000000
   -4    0   -3    2    4    0.000000    0.000000
   -4    0   -3    3    4   -0.000000    0.000000
   -4    0   -3    4    4   -0.000008    0.000000
   -4    0   -3    5    4   -0.000000   -0.000000
   -4    0   -3    1    5    0.000000    0.000000
   -4    0   -3    2    5   -0.000000   -0.000000
   -4    0   -3    3    5   -0.000000   -0.000000
   -4    0   -3    4    5    0.000000   -0.000000
   -4    0   -3    5    5    0.000001   -0.000000
   -4    0   -2    1    1    0.000019   -0.000000
   -4    0   -2    2    1    0.000000   -0.000000
   -4    0   -2    3    1    0.000000   -0.000000
   -4    0   -2    4    1   -0.000000    0.000000
   -4    0   -2    5    1   -0.000000   -0.000000
   -4    0   -2    1    2    0.000000    0.000000
   -4    0   -2    2    2   -0.000110    0.000000
   -4    0   -2    3    2   -0.000000   -0.000000
   -4    0   -2    4    2   -0.000000   -0.000000
   -4    0   -2    5    2    0.000000   -0.000000
   -4    0   -2    1    3    0.000000    0.000000
   -4    0   -2    2    3   -0.000000   -0.000000
   -4    0   -2    3    3   -0.000000    0.000000
   -4    0   -2    4    3    0.000000   -0.000000
   -4    0   -2    5    3    0.000000    0.000000
   -4    0   -2    1    4   -0.000000   -0.000000
   -4    0   -2    2    4   -0.000000   -0.000000
   -4    0   -2    3    4   -0.000000    0.000000
   -4    0   -2    4    4   -0.000052    0.000000
   -4    0   -2    5    4   -0.000000    0.000000
   -4    0   -2    1    5    0.000000   -0.000000
   -4    0   -2    2    5    0.000000   -0.000000
   -4    0   -2    3    5   -0.000000   -0.000000
   -4    0   -2    4    5   -0.000000   -0.000000
   -4    0   -2    5    5    0.000002    0.000000
   -4    0   -1    1    1   -0.000025    0.000000
   -4    0   -1    2    1   -0.000000    0.000000
   -4    0   -1    3    1   -0.000000    0.000000
   -4    0   -1    4    1    0.000091   -0.000000
   -4    0   -1    5    1    0.000000    0.000000
   -4    0   -1    1    2    0.000000   -0.000000
   -4    0   -1    2    2   -0.000047   -0.000000
   -4    0   -1    3    2   -0.000000   -0.000000
   -4    0   -1    4    2    0.000000    0.000000
   -4    0   -1    5    2    0.000000   -0.000000
   -4    0   -1    1    3   -0.000000   -0.000000
   -4    0   -1    2    3   -0.000000    0.000000
   -4    0   -1    3    3   -0.000001    0.000000
   -4    0   -1    4    3   -0.000000   -0.000000
   -4    0   -1    5    3   -0.000000    0.000000
   -4    0   -1    1    4    0.000091   -0.000000
   -4    0   -1    2    4   -0.000000   -0.000000
   -4    0   -1    3    4    0.000000   -0.000000
   -4    0   -1    4    4   -0.000240   -0.000000
   -4    0   -1    5    4   -0.000000    0.000000
   -4    0   -1    1    5   -0.000000    0.000000
   -4    0   -1    2    5    0.000000    0.000000
   -4    0   -1    3    5    0.000000    0.000000
   -4    0   -1    4    5   -0.000000   -0.000000
   -4    0   -1    5    5    0.000009    0.000000
   -4    0    0    1    1   -0.000451    0.000000
   -4    0    0    2    1   -0.000000   -0.000000
   -4    0    0    3    1   -0.000000   -0.000000
   -4    0    0    4    1    0.000793   -0.000000
   -4    0    0    5    1    0.000000    0.000000
   -4    0    0    1    2   -0.000000    0.000000
   -4    0    0    2    2   -0.000000    0.000000
   -4    0    0    3    2   -0.000000   -0.000000
   -4    0    0    4    2    0.000000   -0.000000
   -4    0    0    5    2   -0.000000    0.000000
   -4    0    0    1    3   -0.000000    0.000000
   -4    0    0    2    3   -0.000000    0.000000
   -4    0    0    3    3   -0.000002    0.000000
   -4    0    0    4    3   -0.000000    0.000000
   -4    0    0    5    3   -0.000000   -0.000000
   -4    0    0    1    4    0.000793    0.000000
   -4    0    0    2    4    0.000000    0.000000
   -4    0    0    3    4   -0.000000   -0.000000
   -4    0    0    4    4   -0.001378    0.000000
   -4    0    0    5    4   -0.000000   -0.000000
   -4    0    0    1    5    0.000000   -0.000000
   -4    0    0    2    5   -0.000000   -0.000000
   -4    0    0    3    5   -0.000000    0.000000
   -4    0    0    4    5   -0.000000    0.000000
   -4    0    0    5    5   -0.000000    0.000000
   -4    0    1    1    1   -0.000025   -0.000000
   -4    0    1    2    1    0.000000    0.000000
   -4    0    1    3    1   -0.000000    0.000000
   -4    0    1    4    1    0.000091    0.000000
   -4    0    1    5    1   -0.000000   -0.000000
   -4    0    1    1    2   -0.000000   -0.000000
   -4    0    1    2    2   -0.000047    0.000000
   -4    0    1    3    2   -0.000000   -0.000000
   -4    0    1    4    2   -0.000000    0.000000
   -4    0    1    5    2    0.000000   -0.000000
   -4    0    1    1    3   -0.000000   -0.000000
   -4    0    1    2    3   -0.000000    0.000000
   -4    0    1    3    3   -0.000001   -0.000000
   -4    0    1    4    3    0.000000    0.000000
   -4    0    1    5    3    0.000000   -0.000000
   -4    0    1    1    4    0.000091    0.000000
   -4    0    1    2    4    0.000000   -0.000000
   -4    0    1    3    4   -0.000000    0.000000
   -4    0    1    4    4   -0.000240    0.000000
   -4    0    1    5    4   -0.000000    0.000000
   -4    0    1    1    5    0.000000   -0.000000
   -4    0    1    2    5    0.000000    0.000000
   -4    0    1    3    5   -0.000000   -0.000000
   -4    0    1    4    5   -0.000000   -0.000000
   -4    0    1    5    5    0.000009   -0.000000
   -4    0    2    1    1    0.000019    0.000000
   -4    0    2    2    1    0.000000   -0.000000
   -4    0    2    3    1    0.000000   -0.000000
   -4    0    2    4    1   -0.000000    0.000000
   -4    0    2    5    1    0.000000    0.000000
   -4    0    2    1    2    0.000000    0.000000
   -4    0    2    2    2   -0.000110   -0.000000
   -4    0    2    3    2   -0.000000    0.000000
   -4    0    2    4    2   -0.000000    0.000000
   -4    0    2    5    2    0.000000    0.000000
   -4    0    2    1    3    0.000000    0.000000
   -4    0    2    2    3   -0.000000    0.000000
   -4    0    2    3    3   -0.000000   -0.000000
   -4    0    2    4    3   -0.000000   -0.000000
   -4    0    2    5    3   -0.000000    0.000000
   -4    0    2    1    4   -0.000000   -0.000000
   -4    0    2    2    4   -0.000000    0.000000
   -4    0    2    3    4    0.000000    0.000000
   -4    0    2    4    4   -0.000052   -0.000000
   -4    0    2    5    4   -0.000000    0.000000
   -4    0    2    1    5   -0.000000    0.000000
   -4    0    2    2    5    0.000000    0.000000
   -4    0    2    3    5    0.000000   -0.000000
   -4    0    2    4    5   -0.000000   -0.000000
   -4    0    2    5    5    0.000002   -0.000000
   -4    0    3    1    1    0.000015    0.000000
   -4    0    3    2    1   -0.000000    0.000000
   -4    0    3    3    1   -0.000000   -0.000000
   -4    0    3    4    1   -0.000011    0.000000
   -4    0    3    5    1    0.000000   -0.000000
   -4    0    3    1    2   -0.000000   -0.000000
   -4    0    3    2    2   -0.000088    0.000000
   -4    0    3    3    2    0.000000   -0.000000
   -4    0    3    4    2    0.000000   -0.000000
   -4    0    3    5    2   -0.000000    0.000000
   -4    0    3    1    3    0.000000   -0.000000
   -4    0    3    2    3    0.000000   -0.000000
   -4    0    3    3    3    0.000000   -0.000000
   -4    0    3    4    3   -0.000000   -0.000000
   -4    0    3    5    3   -0.000000    0.000000
   -4    0    3    1    4   -0.000011   -0.000000
   -4    0    3    2    4   -0.000000   -0.000000
   -4    0    3    3    4   -0.000000   -0.000000
   -4    0    3    4    4   -0.000008   -0.000000
   -4    0    3    5    4    0.000000    0.000000
   -4    0    3    1    5    0.000000   -0.000000
   -4    0    3    2    5   -0.000000    0.000000
   -4    0    3    3    5    0.000000   -0.000000
   -4    0    3    4    5   -0.000000    0.000000
   -4    0    3    5    5    0.000001    0.000000
   -4    0    4    1    1    0.000009    0.000000
   -4    0    4    2    1    0.000000    0.000000
   -4    0    4    3    1    0.000000   -0.000000
   -4    0    4    4    1   -0.000010    0.000000
   -4    0    4    5    1    0.000000    0.000000
   -4    0    4    1    2    0.000000   -0.000000
   -4    0    4    2    2   -0.000069    0.000000
   -4    0    4    3    2    0.000000   -0.000000
   -4    0    4    4    2   -0.000000   -0.000000
   -4    0    4    5    2    0.000000   -0.000000
   -4    0    4    1    3    0.000000    0.000000
   -4    0    4    2    3    0.000000    0.000000
   -4    0    4    3    3   -0.000000   -0.000000
   -4    0    4    4    3    0.000000    0.000000
   -4    0    4    5    3    0.000000    0.000000
   -4    0    4    1    4   -0.000010   -0.000000
   -4    0    4    2    4   -0.000000    0.000000
   -4    0    4    3    4    0.000000   -0.000000
   -4    0    4    4    4   -0.000003   -0.000000
   -4    0    4    5    4    0.000000    0.000000
   -4    0    4    1    5    0.000000   -0.000000
   -4    0    4    2    5    0.000000    0.000000
   -4    0    4    3    5    0.000000   -0.000000
   -4    0    4    4    5    0.000000   -0.000000
   -4    0    4    5    5   -0.000000    0.000000
   -4    1   -4    1    1    0.000002   -0.000000
   -4    1   -4    2    1   -0.000000    0.000000
   -4    1   -4    3    1    0.000000   -0.000000
   -4    1   -4    4    1   -0.000002    0.000000
   -4    1   -4    5    1    0.000000   -0.000000
   -4    1   -4    1    2   -0.000000   -0.000000
   -4    1   -4    2    2   -0.000010    0.000000
   -4    1   -4    3    2    0.000000   -0.000000
   -4    1   -4    4    2    0.000000   -0.000000
   -4    1   -4    5    2   -0.000000   -0.000000
   -4    1   -4    1    3    0.000000    0.000000
   -4    1   -4    2    3    0.000000   -0.000000
   -4    1   -4    3    3    0.000001    0.000000
   -4    1   -4    4    3    0.000000    0.000000
   -4    1   -4    5    3   -0.000000    0.000000
   -4    1   -4    1    4   -0.000002   -0.000000
   -4    1   -4    2    4   -0.000000    0.000000
   -4    1   -4    3    4    0.000000   -0.000000
   -4    1   -4    4    4   -0.000001   -0.000000
   -4    1   -4    5    4    0.000000   -0.000000
   -4    1   -4    1    5    0.000000   -0.000000
   -4    1   -4    2    5    0.000000   -0.000000
   -4    1   -4    3    5   -0.000000    0.000000
   -4    1   -4    4    5    0.000000   -0.000000
   -4    1   -4    5    5    0.000001    0.000000
   -4    1   -3    1    1    0.000002   -0.000000
   -4    1   -3    2    1    0.000000    0.000000
   -4    1   -3    3    1    0.000001   -0.000000
   -4    1   -3    4    1   -0.000003    0.000000
   -4    1   -3    5    1    0.000000    0.000000
   -4    1   -3    1    2    0.000000   -0.000000
   -4    1   -3    2    2   -0.000010   -0.000000
   -4    1   -3    3    2    0.000000    0.000000
   -4    1   -3    4    2    0.000000   -0.000000
   -4    1   -3    5    2    0.000003   -0.000000
   -4    1   -3    1    3    0.000001    0.000000
   -4    1   -3    2    3    0.000000   -0.000000
   -4    1   -3    3    3   -0.000000    0.000000
   -4    1   -3    4    3   -0.000001   -0.000000
   -4    1   -3    5    3    0.000000   -0.000000
   -4    1   -3    1    4   -0.000003   -0.000000
   -4    1   -3    2    4    0.000000    0.000000
   -4    1   -3    3    4   -0.000001    0.000000
   -4    1   -3    4    4    0.000000    0.000000
   -4    1   -3    5    4    0.000000   -0.000000
   -4    1   -3    1    5   -0.000000   -0.000000
   -4    1   -3    2    5    0.000003   -0.000000
   -4    1   -3    3    5   -0.000000    0.000000
   -4    1   -3    4    5   -0.000000    0.000000
   -4    1   -3    5    5   -0.000001    0.000000
   -4    1   -2    1    1    0.000002    0.000000
   -4    1   -2    2    1   -0.000000    0.000000
   -4    1   -2    3    1    0.000001    0.000000
   -4    1   -2    4    1   -0.000001   -0.000000
   -4    1   -2    5    1   -0.000000   -0.000000
   -4    1   -2    1    2    0.000000    0.000000
   -4    1   -2    2    2   -0.000008    0.000000
   -4    1   -2    3    2   -0.000000    0.000000
   -4    1   -2    4    2   -0.000000    0.000000
   -4    1   -2    5    2    0.000016   -0.000000
   -4    1   -2    1    3    0.000001   -0.000000
   -4    1   -2    2    3   -0.000000   -0.000000
   -4    1   -2    3    3    0.000000    0.000000
   -4    1   -2    4    3   -0.000001   -0.000000
   -4    1   -2    5    3    0.000000    0.000000
   -4    1   -2    1    4   -0.000001    0.000000
   -4    1   -2    2    4   -0.000000   -0.000000
   -4    1   -2    3    4   -0.000001    0.000000
   -4    1   -2    4    4   -0.000003   -0.000000
   -4    1   -2    5    4   -0.000000   -0.000000
   -4    1   -2    1    5   -0.000000    0.000000
   -4    1   -2    2    5    0.000016    0.000000
   -4    1   -2    3    5    0.000000   -0.000000
   -4    1   -2    4    5   -0.000000    0.000000
   -4    1   -2    5    5    0.000000   -0.000000
   -4    1   -1    1    1   -0.000004    0.000000
   -4    1   -1    2    1    0.000000   -0.000000
   -4    1   -1    3    1   -0.000001    0.000000
   -4    1   -1    4    1    0.000008   -0.000000
   -4    1   -1    5    1    0.000000    0.000000
   -4    1   -1    1    2   -0.000000   -0.000000
   -4    1   -1    2    2    0.000006    0.000000
   -4    1   -1    3    2   -0.000000   -0.000000
   -4    1   -1    4    2   -0.000000    0.000000
   -4    1   -1    5    2    0.000044   -0.000000
   -4    1   -1    1    3   -0.000001   -0.000000
   -4    1   -1    2    3   -0.000000   -0.000000
   -4    1   -1    3    3   -0.000000   -0.000000
   -4    1   -1    4    3    0.000002    0.000000
   -4    1   -1    5    3    0.000000   -0.000000
   -4    1   -1    1    4    0.000008    0.000000
   -4    1   -1    2    4    0.000000   -0.000000
   -4    1   -1    3    4    0.000002    0.000000
   -4    1   -1    4    4   -0.000014   -0.000000
   -4    1   -1    5    4   -0.000000   -0.000000
   -4    1   -1    1    5    0.000000   -0.000000
   -4    1   -1    2    5    0.000044    0.000000
   -4    1   -1    3    5    0.000000   -0.000000
   -4    1   -1    4    5   -0.000000   -0.000000
   -4    1   -1    5    5    0.000006   -0.000000
   -4    1    0    1    1   -0.000106   -0.000000
   -4    1    0    2    1   -0.000000    0.000000
   -4    1    0    3    1   -0.000000   -0.000000
   -4    1    0    4    1    0.000139    0.000000
   -4    1    0    5    1    0.000000   -0.000000
   -4    1    0    1    2    0.000000    0.000000
   -4    1    0    2    2    0.000009   -0.000000
   -4    1    0    3    2   -0.000000   -0.000000
   -4    1    0    4    2   -0.000000    0.000000
   -4    1    0    5    2   -0.000000    0.000000
   -4    1    0    1    3    0.000000   -0.000000
   -4    1    0    2    3   -0.000000   -0.000000
   -4    1    0    3    3   -0.000001   -0.000000
   -4    1    0    4    3   -0.000000   -0.000000
   -4    1    0    5    3    0.000000   -0.000000
   -4    1    0    1    4    0.000139   -0.000000
   -4    1    0    2    4   -0.000000    0.000000
   -4    1    0    3    4   -0.000000    0.000000
   -4    1    0    4    4   -0.000159    0.000000
   -4    1    0    5    4   -0.000000   -0.000000
   -4    1    0    1    5    0.000000   -0.000000
   -4    1    0    2    5   -0.000000    0.000000
   -4    1    0    3    5   -0.000000   -0.000000
   -4    1    0    4    5   -0.000000   -0.000000
   -4    1    0    5    5   -0.000047    0.000000
   -4    1    1    1    1   -0.000004    0.000000
   -4    1    1    2    1    0.000000   -0.000000
   -4    1    1    3    1    0.000001    0.000000
   -4    1    1    4    1    0.000008   -0.000000
   -4    1    1    5    1   -0.000000    0.000000
   -4    1    1    1    2    0.000000   -0.000000
   -4    1    1    2    2    0.000006    0.000000
   -4    1    1    3    2   -0.000000   -0.000000
   -4    1    1    4    2   -0.000000    0.000000
   -4    1    1    5    2   -0.000044   -0.000000
   -4    1    1    1    3    0.000001   -0.000000
   -4    1    1    2    3   -0.000000   -0.000000
   -4    1    1    3    3   -0.000000   -0.000000
   -4    1    1    4    3   -0.000002   -0.000000
   -4    1    1    5    3    0.000000    0.000000
   -4    1    1    1    4    0.000008    0.000000
   -4    1    1    2    4   -0.000000    0.000000
   -4    1    1    3    4   -0.000002   -0.000000
   -4    1    1    4    4   -0.000014   -0.000000
   -4    1    1    5    4    0.000000   -0.000000
   -4    1    1    1    5   -0.000000    0.000000
   -4    1    1    2    5   -0.000044   -0.000000
   -4    1    1    3    5   -0.000000   -0.000000
   -4    1    1    4    5   -0.000000    0.000000
   -4    1    1    5    5    0.000006    0.000000
   -4    1    2    1    1    0.000002    0.000000
   -4    1    2    2    1    0.000000   -0.000000
   -4    1    2    3    1   -0.000001    0.000000
   -4    1    2    4    1   -0.000001    0.000000
   -4    1    2    5    1    0.000000    0.000000
   -4    1    2    1    2   -0.000000   -0.000000
   -4    1    2    2    2   -0.000008   -0.000000
   -4    1    2    3    2   -0.000000   -0.000000
   -4    1    2    4    2    0.000000   -0.000000
   -4    1    2    5    2   -0.000016   -0.000000
   -4    1    2    1    3   -0.000001   -0.000000
   -4    1    2    2    3   -0.000000    0.000000
   -4    1    2    3    3    0.000000   -0.000000
   -4    1    2    4    3    0.000001    0.000000
   -4    1    2    5    3    0.000000    0.000000
   -4    1    2    1    4   -0.000001   -0.000000
   -4    1    2    2    4   -0.000000   -0.000000
   -4    1    2    3    4    0.000001    0.000000
   -4    1    2    4    4   -0.000003    0.000000
   -4    1    2    5    4   -0.000000    0.000000
   -4    1    2    1    5    0.000000   -0.000000
   -4    1    2    2    5   -0.000016   -0.000000
   -4    1    2    3    5    0.000000   -0.000000
   -4    1    2    4    5    0.000000    0.000000
   -4    1    2    5    5    0.000000   -0.000000
   -4    1    3    1    1    0.000002    0.000000
   -4    1    3    2    1   -0.000000    0.000000
   -4    1    3    3    1   -0.000001    0.000000
   -4    1    3    4    1   -0.000003    0.000000
   -4    1    3    5    1   -0.000000   -0.000000
   -4    1    3    1    2   -0.000000   -0.000000
   -4    1    3    2    2   -0.000010   -0.000000
   -4    1    3    3    2    0.000000   -0.000000
   -4    1    3    4    2   -0.000000   -0.000000
   -4    1    3    5    2   -0.000003   -0.000000
   -4    1    3    1    3   -0.000001   -0.000000
   -4    1    3    2    3    0.000000    0.000000
   -4    1    3    3    3   -0.000000   -0.000000
   -4    1    3    4    3    0.000001   -0.000000
   -4    1    3    5    3    0.000000    0.000000
   -4    1    3    1    4   -0.000003   -0.000000
   -4    1    3    2    4   -0.000000    0.000000
   -4    1    3    3    4    0.000001   -0.000000
   -4    1    3    4    4    0.000000    0.000000
   -4    1    3    5    4   -0.000000    0.000000
   -4    1    3    1    5   -0.000000    0.000000
   -4    1    3    2    5   -0.000003   -0.000000
   -4    1    3    3    5    0.000000   -0.000000
   -4    1    3    4    5    0.000000    0.000000
   -4    1    3    5    5   -0.000001   -0.000000
   -4    1    4    1    1    0.000002   -0.000000
   -4    1    4    2    1   -0.000000    0.000000
   -4    1    4    3    1    0.000000   -0.000000
   -4    1    4    4    1   -0.000002    0.000000
   -4    1    4    5    1    0.000000   -0.000000
   -4    1    4    1    2   -0.000000   -0.000000
   -4    1    4    2    2   -0.000010    0.000000
   -4    1    4    3    2    0.000000   -0.000000
   -4    1    4    4    2    0.000000   -0.000000
   -4    1    4    5    2   -0.000000   -0.000000
   -4    1    4    1    3    0.000000    0.000000
   -4    1    4    2    3    0.000000   -0.000000
   -4    1    4    3    3    0.000001    0.000000
   -4    1    4    4    3    0.000000    0.000000
   -4    1    4    5    3   -0.000000    0.000000
   -4    1    4    1    4   -0.000002   -0.000000
   -4    1    4    2    4   -0.000000    0.000000
   -4    1    4    3    4    0.000000   -0.000000
   -4    1    4    4    4   -0.000001   -0.000000
   -4    1    4    5    4    0.000000   -0.000000
   -4    1    4    1    5    0.000000   -0.000000
   -4    1    4    2    5    0.000000   -0.000000
   -4    1    4    3    5   -0.000000    0.000000
   -4    1    4    4    5    0.000000   -0.000000
   -4    1    4    5    5    0.000001    0.000000
   -4    2   -4    1    1   -0.000001   -0.000000
   -4    2   -4    2    1   -0.000000    0.000000
   -4    2   -4    3    1    0.000000   -0.000000
   -4    2   -4    4    1   -0.000001    0.000000
   -4    2   -4    5    1    0.000000    0.000000
   -4    2   -4    1    2   -0.000000   -0.000000
   -4    2   -4    2    2   -0.000002    0.000000
   -4    2   -4    3    2    0.000000   -0.000000
   -4    2   -4    4    2   -0.000000   -0.000000
   -4    2   -4    5    2    0.000000    0.000000
   -4    2   -4    1    3    0.000000    0.000000
   -4    2   -4    2    3    0.000000    0.000000
   -4    2   -4    3    3   -0.000001    0.000000
   -4    2   -4    4    3    0.000000    0.000000
   -4    2   -4    5    3    0.000000   -0.000000
   -4    2   -4    1    4   -0.000001   -0.000000
   -4    2   -4    2    4   -0.000000    0.000000
   -4    2   -4    3    4    0.000000   -0.000000
   -4    2   -4    4    4   -0.000002   -0.000000
   -4    2   -4    5    4   -0.000000   -0.000000
   -4    2   -4    1    5    0.000000   -0.000000
   -4    2   -4    2    5    0.000000   -0.000000
   -4    2   -4    3    5   -0.000000   -0.000000
   -4    2   -4    4    5    0.000000   -0.000000
   -4    2   -4    5    5   -0.000001    0.000000
   -4    2   -3    1    1    0.000001   -0.000000
   -4    2   -3    2    1    0.000000    0.000000
   -4    2   -3    3    1    0.000000   -0.000000
   -4    2   -3    4    1   -0.000000    0.000000
   -4    2   -3    5    1    0.000000   -0.000000
   -4    2   -3    1    2    0.000000   -0.000000
   -4    2   -3    2    2   -0.000001   -0.000000
   -4    2   -3    3    2   -0.000000    0.000000
   -4    2   -3    4    2    0.000000   -0.000000
   -4    2   -3    5    2    0.000001   -0.000000
   -4    2   -3    1    3    0.000000    0.000000
   -4    2   -3    2    3   -0.000000   -0.000000
   -4    2   -3    3    3   -0.000001    0.000000
   -4    2   -3    4    3   -0.000000   -0.000000
   -4    2   -3    5    3    0.000000   -0.000000
   -4    2   -3    1    4   -0.000000   -0.000000
   -4    2   -3    2    4    0.000000    0.000000
   -4    2   -3    3    4   -0.000000    0.000000
   -4    2   -3    4    4   -0.000000    0.000000
   -4    2   -3    5    4   -0.000000   -0.000000
   -4    2   -3    1    5   -0.000000    0.000000
   -4    2   -3    2    5    0.000001    0.000000
   -4    2   -3    3    5   -0.000000    0.000000
   -4    2   -3    4    5   -0.000000    0.000000
   -4    2   -3    5    5   -0.000000   -0.000000
   -4    2   -2    1    1    0.000001    0.000000
   -4    2   -2    2    1   -0.000000    0.000000
   -4    2   -2    3    1    0.000001    0.000000
   -4    2   -2    4    1   -0.000001   -0.000000
   -4    2   -2    5    1    0.000000    0.000000
   -4    2   -2    1    2    0.000000   -0.000000
   -4    2   -2    2    2    0.000001    0.000000
   -4    2   -2    3    2   -0.000000    0.000000
   -4    2   -2    4    2    0.000000   -0.000000
   -4    2   -2    5    2    0.000006   -0.000000
   -4    2   -2    1    3    0.000001   -0.000000
   -4    2   -2    2    3   -0.000000   -0.000000
   -4    2   -2    3    3    0.000001    0.000000
   -4    2   -2    4    3   -0.000001   -0.000000
   -4    2   -2    5    3    0.000000    0.000000
   -4    2   -2    1    4   -0.000001    0.000000
   -4    2   -2    2    4    0.000000    0.000000
   -4    2   -2    3    4   -0.000001    0.000000
   -4    2   -2    4    4    0.000002   -0.000000
   -4    2   -2    5    4    0.000000   -0.000000
   -4    2   -2    1    5    0.000000    0.000000
   -4    2   -2    2    5    0.000006    0.000000
   -4    2   -2    3    5    0.000000   -0.000000
   -4    2   -2    4    5    0.000000    0.000000
   -4    2   -2    5    5    0.000001   -0.000000
   -4    2   -1    1    1   -0.000003    0.000000
   -4    2   -1    2    1    0.000000    0.000000
   -4    2   -1    3    1    0.000000    0.000000
   -4    2   -1    4    1    0.000002   -0.000000
   -4    2   -1    5    1   -0.000000   -0.000000
   -4    2   -1    1    2   -0.000000    0.000000
   -4    2   -1    2    2    0.000000   -0.000000
   -4    2   -1    3    2   -0.000000    0.000000
   -4    2   -1    4    2    0.000000   -0.000000
   -4    2   -1    5    2    0.000016   -0.000000
   -4    2   -1    1    3    0.000000   -0.000000
   -4    2   -1    2    3   -0.000000   -0.000000
   -4    2   -1    3    3    0.000000    0.000000
   -4    2   -1    4    3   -0.000001   -0.000000
   -4    2   -1    5    3    0.000000    0.000000
   -4    2   -1    1    4    0.000002    0.000000
   -4    2   -1    2    4    0.000000   -0.000000
   -4    2   -1    3    4   -0.000001    0.000000
   -4    2   -1    4    4    0.000001   -0.000000
   -4    2   -1    5    4    0.000000   -0.000000
   -4    2   -1    1    5    0.000000    0.000000
   -4    2   -1    2    5    0.000016    0.000000
   -4    2   -1    3    5    0.000000   -0.000000
   -4    2   -1    4    5    0.000000    0.000000
   -4    2   -1    5    5   -0.000009   -0.000000
   -4    2    0    1    1   -0.000035    0.000000
   -4    2    0    2    1   -0.000000   -0.000000
   -4    2    0    3    1    0.000000   -0.000000
   -4    2    0    4    1    0.000031   -0.000000
   -4    2    0    5    1    0.000000    0.000000
   -4    2    0    1    2    0.000000    0.000000
   -4    2    0    2    2    0.000002   -0.000000
   -4    2    0    3    2   -0.000000    0.000000
   -4    2    0    4    2    0.000000   -0.000000
   -4    2    0    5    2    0.000000    0.000000
   -4    2    0    1    3    0.000000    0.000000
   -4    2    0    2    3   -0.000000    0.000000
   -4    2    0    3    3   -0.000000    0.000000
   -4    2    0    4    3    0.000000    0.000000
   -4    2    0    5    3    0.000000   -0.000000
   -4    2    0    1    4    0.000031    0.000000
   -4    2    0    2    4    0.000000   -0.000000
   -4    2    0    3    4    0.000000    0.000000
   -4    2    0    4    4    0.000002   -0.000000
   -4    2    0    5    4    0.000000    0.000000
   -4    2    0    1    5   -0.000000   -0.000000
   -4    2    0    2    5    0.000000   -0.000000
   -4    2    0    3    5   -0.000000   -0.000000
   -4    2    0    4    5   -0.000000    0.000000
   -4    2    0    5    5   -0.000110   -0.000000
   -4    2    1    1    1   -0.000003   -0.000000
   -4    2    1    2    1    0.000000   -0.000000
   -4    2    1    3    1   -0.000000   -0.000000
   -4    2    1    4    1    0.000002   -0.000000
   -4    2    1    5    1   -0.000000    0.000000
   -4    2    1    1    2    0.000000   -0.000000
   -4    2    1    2    2    0.000000   -0.000000
   -4    2    1    3    2   -0.000000   -0.000000
   -4    2    1    4    2    0.000000    0.000000
   -4    2    1    5    2   -0.000016   -0.000000
   -4    2    1    1    3   -0.000000    0.000000
   -4    2    1    2    3   -0.000000    0.000000
   -4    2    1    3    3    0.000000    0.000000
   -4    2    1    4    3    0.000001    0.000000
   -4    2    1    5    3   -0.000000   -0.000000
   -4    2    1    1    4    0.000002    0.000000
   -4    2    1    2    4   -0.000000    0.000000
   -4    2    1    3    4    0.000001    0.000000
   -4    2    1    4    4    0.000001    0.000000
   -4    2    1    5    4    0.000000   -0.000000
   -4    2    1    1    5    0.000000    0.000000
   -4    2    1    2    5   -0.000016   -0.000000
   -4    2    1    3    5   -0.000000    0.000000
   -4    2    1    4    5    0.000000   -0.000000
   -4    2    1    5    5   -0.000009    0.000000
   -4    2    2    1    1    0.000001   -0.000000
   -4    2    2    2    1    0.000000    0.000000
   -4    2    2    3    1   -0.000001    0.000000
   -4    2    2    4    1   -0.000001   -0.000000
   -4    2    2    5    1   -0.000000   -0.000000
   -4    2    2    1    2    0.000000    0.000000
   -4    2    2    2    2    0.000001   -0.000000
   -4    2    2    3    2   -0.000000   -0.000000
   -4    2    2    4    2   -0.000000    0.000000
   -4    2    2    5    2   -0.000006    0.000000
   -4    2    2    1    3   -0.000001   -0.000000
   -4    2    2    2    3   -0.000000    0.000000
   -4    2    2    3    3    0.000001   -0.000000
   -4    2    2    4    3    0.000001   -0.000000
   -4    2    2    5    3    0.000000   -0.000000
   -4    2    2    1    4   -0.000001    0.000000
   -4    2    2    2    4    0.000000    0.000000
   -4    2    2    3    4    0.000001    0.000000
   -4    2    2    4    4    0.000002    0.000000
   -4    2    2    5    4    0.000000   -0.000000
   -4    2    2    1    5   -0.000000    0.000000
   -4    2    2    2    5   -0.000006   -0.000000
   -4    2    2    3    5   -0.000000    0.000000
   -4    2    2    4    5   -0.000000    0.000000
[...]
    4    3   -2    2    1   -0.000000   -0.000000
    4    3   -2    3    1    0.000000    0.000000
    4    3   -2    4    1    0.000000   -0.000000
    4    3   -2    5    1   -0.000000    0.000000
    4    3   -2    1    2   -0.000000    0.000000
    4    3   -2    2    2   -0.000000    0.000000
    4    3   -2    3    2   -0.000000    0.000000
    4    3   -2    4    2    0.000000   -0.000000
    4    3   -2    5    2    0.000001    0.000000
    4    3   -2    1    3    0.000000   -0.000000
    4    3   -2    2    3   -0.000000   -0.000000
    4    3   -2    3    3   -0.000001   -0.000000
    4    3   -2    4    3   -0.000000   -0.000000
    4    3   -2    5    3    0.000000    0.000000
    4    3   -2    1    4    0.000000    0.000000
    4    3   -2    2    4   -0.000000    0.000000
    4    3   -2    3    4   -0.000000    0.000000
    4    3   -2    4    4    0.000001    0.000000
    4    3   -2    5    4   -0.000000   -0.000000
    4    3   -2    1    5    0.000000   -0.000000
    4    3   -2    2    5    0.000001   -0.000000
    4    3   -2    3    5    0.000000   -0.000000
    4    3   -2    4    5   -0.000000    0.000000
    4    3   -2    5    5   -0.000001   -0.000000
    4    3   -1    1    1   -0.000001    0.000000
    4    3   -1    2    1   -0.000000   -0.000000
    4    3   -1    3    1    0.000000    0.000000
    4    3   -1    4    1   -0.000000   -0.000000
    4    3   -1    5    1    0.000000    0.000000
    4    3   -1    1    2   -0.000000    0.000000
    4    3   -1    2    2   -0.000001   -0.000000
    4    3   -1    3    2   -0.000000    0.000000
    4    3   -1    4    2   -0.000000   -0.000000
    4    3   -1    5    2    0.000003    0.000000
    4    3   -1    1    3    0.000000   -0.000000
    4    3   -1    2    3   -0.000000   -0.000000
    4    3   -1    3    3   -0.000000    0.000000
    4    3   -1    4    3   -0.000001    0.000000
    4    3   -1    5    3    0.000000    0.000000
    4    3   -1    1    4   -0.000000    0.000000
    4    3   -1    2    4    0.000000    0.000000
    4    3   -1    3    4   -0.000001    0.000000
    4    3   -1    4    4    0.000004   -0.000000
    4    3   -1    5    4    0.000000    0.000000
    4    3   -1    1    5    0.000000   -0.000000
    4    3   -1    2    5    0.000003    0.000000
    4    3   -1    3    5    0.000000   -0.000000
    4    3   -1    4    5   -0.000000   -0.000000
    4    3   -1    5    5   -0.000010    0.000000
    4    3    0    1    1   -0.000012   -0.000000
    4    3    0    2    1    0.000000   -0.000000
    4    3    0    3    1   -0.000000   -0.000000
    4    3    0    4    1    0.000005   -0.000000
    4    3    0    5    1    0.000000    0.000000
    4    3    0    1    2   -0.000000    0.000000
    4    3    0    2    2    0.000001   -0.000000
    4    3    0    3    2    0.000000   -0.000000
    4    3    0    4    2   -0.000000   -0.000000
    4    3    0    5    2    0.000000    0.000000
    4    3    0    1    3   -0.000000    0.000000
    4    3    0    2    3   -0.000000   -0.000000
    4    3    0    3    3    0.000000    0.000000
    4    3    0    4    3   -0.000000    0.000000
    4    3    0    5    3    0.000000   -0.000000
    4    3    0    1    4    0.000005    0.000000
    4    3    0    2    4    0.000000   -0.000000
    4    3    0    3    4    0.000000    0.000000
    4    3    0    4    4    0.000019    0.000000
    4    3    0    5    4   -0.000000   -0.000000
    4    3    0    1    5    0.000000   -0.000000
    4    3    0    2    5   -0.000000   -0.000000
    4    3    0    3    5   -0.000000   -0.000000
    4    3    0    4    5    0.000000    0.000000
    4    3    0    5    5   -0.000088   -0.000000
    4    3    1    1    1   -0.000001   -0.000000
    4    3    1    2    1   -0.000000   -0.000000
    4    3    1    3    1   -0.000000   -0.000000
    4    3    1    4    1   -0.000000   -0.000000
    4    3    1    5    1    0.000000    0.000000
    4    3    1    1    2    0.000000    0.000000
    4    3    1    2    2   -0.000001    0.000000
    4    3    1    3    2    0.000000   -0.000000
    4    3    1    4    2   -0.000000   -0.000000
    4    3    1    5    2   -0.000003   -0.000000
    4    3    1    1    3   -0.000000    0.000000
    4    3    1    2    3    0.000000    0.000000
    4    3    1    3    3   -0.000000    0.000000
    4    3    1    4    3    0.000001   -0.000000
    4    3    1    5    3   -0.000000   -0.000000
    4    3    1    1    4   -0.000000   -0.000000
    4    3    1    2    4   -0.000000    0.000000
    4    3    1    3    4    0.000001    0.000000
    4    3    1    4    4    0.000004    0.000000
    4    3    1    5    4   -0.000000   -0.000000
    4    3    1    1    5   -0.000000   -0.000000
    4    3    1    2    5   -0.000003   -0.000000
    4    3    1    3    5   -0.000000    0.000000
    4    3    1    4    5   -0.000000    0.000000
    4    3    1    5    5   -0.000010   -0.000000
    4    3    2    1    1   -0.000000   -0.000000
    4    3    2    2    1    0.000000   -0.000000
    4    3    2    3    1   -0.000000   -0.000000
    4    3    2    4    1    0.000000   -0.000000
    4    3    2    5    1    0.000000   -0.000000
    4    3    2    1    2    0.000000   -0.000000
    4    3    2    2    2   -0.000000    0.000000
    4    3    2    3    2   -0.000000   -0.000000
    4    3    2    4    2    0.000000   -0.000000
    4    3    2    5    2   -0.000001   -0.000000
    4    3    2    1    3   -0.000000    0.000000
    4    3    2    2    3    0.000000    0.000000
    4    3    2    3    3   -0.000001    0.000000
    4    3    2    4    3    0.000000   -0.000000
    4    3    2    5    3   -0.000000   -0.000000
    4    3    2    1    4    0.000000    0.000000
    4    3    2    2    4    0.000000   -0.000000
    4    3    2    3    4    0.000000    0.000000
    4    3    2    4    4    0.000001    0.000000
    4    3    2    5    4   -0.000000   -0.000000
    4    3    2    1    5   -0.000000   -0.000000
    4    3    2    2    5   -0.000001   -0.000000
    4    3    2    3    5   -0.000000    0.000000
    4    3    2    4    5   -0.000000    0.000000
    4    3    2    5    5   -0.000001   -0.000000
    4    3    3    1    1    0.000000   -0.000000
    4    3    3    2    1    0.000000    0.000000
    4    3    3    3    1   -0.000000    0.000000
    4    3    3    4    1    0.000000   -0.000000
    4    3    3    5    1   -0.000000   -0.000000
    4    3    3    1    2    0.000000    0.000000
    4    3    3    2    2   -0.000000    0.000000
    4    3    3    3    2   -0.000000   -0.000000
    4    3    3    4    2    0.000000   -0.000000
    4    3    3    5    2   -0.000001    0.000000
    4    3    3    1    3   -0.000000   -0.000000
    4    3    3    2    3   -0.000000    0.000000
    4    3    3    3    3    0.000000   -0.000000
    4    3    3    4    3    0.000000   -0.000000
    4    3    3    5    3   -0.000000   -0.000000
    4    3    3    1    4    0.000000    0.000000
    4    3    3    2    4    0.000000    0.000000
    4    3    3    3    4    0.000000    0.000000
    4    3    3    4    4   -0.000000   -0.000000
    4    3    3    5    4   -0.000000   -0.000000
    4    3    3    1    5   -0.000000    0.000000
    4    3    3    2    5   -0.000001   -0.000000
    4    3    3    3    5    0.000000    0.000000
    4    3    3    4    5   -0.000000    0.000000
    4    3    3    5    5   -0.000000    0.000000
    4    3    4    1    1   -0.000000    0.000000
    4    3    4    2    1    0.000000    0.000000
    4    3    4    3    1    0.000000   -0.000000
    4    3    4    4    1    0.000000    0.000000
    4    3    4    5    1    0.000000   -0.000000
    4    3    4    1    2    0.000000   -0.000000
    4    3    4    2    2    0.000000   -0.000000
    4    3    4    3    2   -0.000000    0.000000
    4    3    4    4    2    0.000000   -0.000000
    4    3    4    5    2   -0.000000   -0.000000
    4    3    4    1    3    0.000000    0.000000
    4    3    4    2    3   -0.000000   -0.000000
    4    3    4    3    3   -0.000000   -0.000000
    4    3    4    4    3    0.000000    0.000000
    4    3    4    5    3    0.000000    0.000000
    4    3    4    1    4    0.000000   -0.000000
    4    3    4    2    4    0.000000    0.000000
    4    3    4    3    4    0.000000   -0.000000
    4    3    4    4    4    0.000000   -0.000000
    4    3    4    5    4    0.000000    0.000000
    4    3    4    1    5    0.000000    0.000000
    4    3    4    2    5   -0.000000    0.000000
    4    3    4    3    5   -0.000000    0.000000
    4    3    4    4    5    0.000000   -0.000000
    4    3    4    5    5   -0.000000   -0.000000
    4    4   -4    1    1   -0.000001    0.000000
    4    4   -4    2    1    0.000000    0.000000
    4    4   -4    3    1   -0.000000    0.000000
    4    4   -4    4    1    0.000000   -0.000000
    4    4   -4    5    1   -0.000000   -0.000000
    4    4   -4    1    2    0.000000   -0.000000
    4    4   -4    2    2   -0.000002    0.000000
    4    4   -4    3    2    0.000000    0.000000
    4    4   -4    4    2   -0.000000    0.000000
    4    4   -4    5    2    0.000000    0.000000
    4    4   -4    1    3   -0.000000   -0.000000
    4    4   -4    2    3    0.000000   -0.000000
    4    4   -4    3    3   -0.000002    0.000000
    4    4   -4    4    3   -0.000000   -0.000000
    4    4   -4    5    3    0.000000    0.000000
    4    4   -4    1    4    0.000000    0.000000
    4    4   -4    2    4   -0.000000   -0.000000
    4    4   -4    3    4   -0.000000    0.000000
    4    4   -4    4    4   -0.000002    0.000000
    4    4   -4    5    4   -0.000000    0.000000
    4    4   -4    1    5   -0.000000    0.000000
    4    4   -4    2    5    0.000000   -0.000000
    4    4   -4    3    5    0.000000   -0.000000
    4    4   -4    4    5   -0.000000   -0.000000
    4    4   -4    5    5   -0.000002    0.000000
    4    4   -3    1    1    0.000000   -0.000000
    4    4   -3    2    1   -0.000000   -0.000000
    4    4   -3    3    1    0.000000   -0.000000
    4    4   -3    4    1    0.000000    0.000000
    4    4   -3    5    1    0.000000    0.000000
    4    4   -3    1    2   -0.000000    0.000000
    4    4   -3    2    2   -0.000000    0.000000
    4    4   -3    3    2    0.000000   -0.000000
    4    4   -3    4    2   -0.000000    0.000000
    4    4   -3    5    2    0.000000    0.000000
    4    4   -3    1    3    0.000000    0.000000
    4    4   -3    2    3    0.000000   -0.000000
    4    4   -3    3    3   -0.000000   -0.000000
    4    4   -3    4    3   -0.000000   -0.000000
    4    4   -3    5    3    0.000000   -0.000000
    4    4   -3    1    4    0.000000   -0.000000
    4    4   -3    2    4   -0.000000   -0.000000
    4    4   -3    3    4   -0.000000    0.000000
    4    4   -3    4    4   -0.000000    0.000000
    4    4   -3    5    4    0.000000    0.000000
    4    4   -3    1    5    0.000000   -0.000000
    4    4   -3    2    5    0.000000   -0.000000
    4    4   -3    3    5    0.000000    0.000000
    4    4   -3    4    5    0.000000    0.000000
    4    4   -3    5    5    0.000000   -0.000000
    4    4   -2    1    1   -0.000002    0.000000
    4    4   -2    2    1   -0.000000   -0.000000
    4    4   -2    3    1    0.000000   -0.000000
    4    4   -2    4    1    0.000000    0.000000
    4    4   -2    5    1    0.000000    0.000000
    4    4   -2    1    2   -0.000000    0.000000
    4    4   -2    2    2   -0.000001    0.000000
    4    4   -2    3    2    0.000000   -0.000000
    4    4   -2    4    2    0.000000   -0.000000
    4    4   -2    5    2   -0.000000   -0.000000
    4    4   -2    1    3    0.000000    0.000000
    4    4   -2    2    3    0.000000   -0.000000
    4    4   -2    3    3   -0.000001   -0.000000
    4    4   -2    4    3    0.000000    0.000000
    4    4   -2    5    3   -0.000000   -0.000000
    4    4   -2    1    4    0.000000   -0.000000
    4    4   -2    2    4    0.000000    0.000000
    4    4   -2    3    4    0.000000   -0.000000
    4    4   -2    4    4   -0.000001   -0.000000
    4    4   -2    5    4    0.000000    0.000000
    4    4   -2    1    5    0.000000   -0.000000
    4    4   -2    2    5   -0.000000    0.000000
    4    4   -2    3    5    0.000000   -0.000000
    4    4   -2    4    5   -0.000000   -0.000000
    4    4   -2    5    5   -0.000002    0.000000
    4    4   -1    1    1   -0.000002    0.000000
    4    4   -1    2    1   -0.000000   -0.000000
    4    4   -1    3    1    0.000000   -0.000000
    4    4   -1    4    1    0.000000    0.000000
    4    4   -1    5    1    0.000000    0.000000
    4    4   -1    1    2   -0.000000    0.000000
    4    4   -1    2    2    0.000001   -0.000000
    4    4   -1    3    2    0.000000   -0.000000
    4    4   -1    4    2    0.000000   -0.000000
    4    4   -1    5    2   -0.000000    0.000000
    4    4   -1    1    3    0.000000    0.000000
    4    4   -1    2    3   -0.000000   -0.000000
    4    4   -1    3    3    0.000001    0.000000
    4    4   -1    4    3    0.000000    0.000000
    4    4   -1    5    3   -0.000000    0.000000
    4    4   -1    1    4    0.000000   -0.000000
    4    4   -1    2    4   -0.000000    0.000000
    4    4   -1    3    4    0.000000   -0.000000
    4    4   -1    4    4    0.000003   -0.000000
    4    4   -1    5    4    0.000000    0.000000
    4    4   -1    1    5    0.000000   -0.000000
    4    4   -1    2    5   -0.000000    0.000000
    4    4   -1    3    5   -0.000000   -0.000000
    4    4   -1    4    5    0.000000   -0.000000
    4    4   -1    5    5   -0.000010    0.000000
    4    4    0    1    1   -0.000009   -0.000000
    4    4    0    2    1   -0.000000   -0.000000
    4    4    0    3    1    0.000000   -0.000000
    4    4    0    4    1    0.000000    0.000000
    4    4    0    5    1    0.000000    0.000000
    4    4    0    1    2   -0.000000    0.000000
    4    4    0    2    2   -0.000000    0.000000
    4    4    0    3    2   -0.000000   -0.000000
    4    4    0    4    2   -0.000000   -0.000000
    4    4    0    5    2   -0.000000   -0.000000
    4    4    0    1    3    0.000000    0.000000
    4    4    0    2    3   -0.000000    0.000000
    4    4    0    3    3   -0.000000    0.000000
    4    4    0    4    3   -0.000000    0.000000
    4    4    0    5    3   -0.000000    0.000000
    4    4    0    1    4    0.000000   -0.000000
    4    4    0    2    4   -0.000000    0.000000
    4    4    0    3    4   -0.000000   -0.000000
    4    4    0    4    4    0.000015    0.000000
    4    4    0    5    4   -0.000000    0.000000
    4    4    0    1    5    0.000000   -0.000000
    4    4    0    2    5   -0.000000    0.000000
    4    4    0    3    5   -0.000000   -0.000000
    4    4    0    4    5   -0.000000   -0.000000
    4    4    0    5    5   -0.000069    0.000000
    4    4    1    1    1   -0.000002   -0.000000
    4    4    1    2    1   -0.000000   -0.000000
    4    4    1    3    1    0.000000   -0.000000
    4    4    1    4    1    0.000000    0.000000
    4    4    1    5    1    0.000000    0.000000
    4    4    1    1    2   -0.000000    0.000000
    4    4    1    2    2    0.000001    0.000000
    4    4    1    3    2   -0.000000    0.000000
    4    4    1    4    2   -0.000000   -0.000000
    4    4    1    5    2   -0.000000   -0.000000
    4    4    1    1    3    0.000000    0.000000
    4    4    1    2    3    0.000000    0.000000
    4    4    1    3    3    0.000001   -0.000000
    4    4    1    4    3    0.000000    0.000000
    4    4    1    5    3   -0.000000    0.000000
    4    4    1    1    4    0.000000   -0.000000
    4    4    1    2    4    0.000000    0.000000
    4    4    1    3    4    0.000000   -0.000000
    4    4    1    4    4    0.000003    0.000000
    4    4    1    5    4    0.000000    0.000000
    4    4    1    1    5    0.000000   -0.000000
    4    4    1    2    5   -0.000000   -0.000000
    4    4    1    3    5   -0.000000   -0.000000
    4    4    1    4    5    0.000000   -0.000000
    4    4    1    5    5   -0.000010   -0.000000
    4    4    2    1    1   -0.000002   -0.000000
    4    4    2    2    1   -0.000000   -0.000000
    4    4    2    3    1    0.000000   -0.000000
    4    4    2    4    1    0.000000    0.000000
    4    4    2    5    1    0.000000    0.000000
    4    4    2    1    2   -0.000000    0.000000
    4    4    2    2    2   -0.000001   -0.000000
    4    4    2    3    2    0.000000    0.000000
    4    4    2    4    2    0.000000   -0.000000
    4    4    2    5    2   -0.000000   -0.000000
    4    4    2    1    3    0.000000    0.000000
    4    4    2    2    3    0.000000    0.000000
    4    4    2    3    3   -0.000001    0.000000
    4    4    2    4    3    0.000000    0.000000
    4    4    2    5    3    0.000000    0.000000
    4    4    2    1    4    0.000000   -0.000000
    4    4    2    2    4    0.000000    0.000000
    4    4    2    3    4    0.000000   -0.000000
    4    4    2    4    4   -0.000001    0.000000
    4    4    2    5    4   -0.000000    0.000000
    4    4    2    1    5    0.000000   -0.000000
    4    4    2    2    5   -0.000000    0.000000
    4    4    2    3    5   -0.000000    0.000000
    4    4    2    4    5    0.000000   -0.000000
    4    4    2    5    5   -0.000002   -0.000000
    4    4    3    1    1    0.000000    0.000000
    4    4    3    2    1   -0.000000   -0.000000
    4    4    3    3    1    0.000000   -0.000000
    4    4    3    4    1    0.000000    0.000000
    4    4    3    5    1    0.000000    0.000000
    4    4    3    1    2   -0.000000    0.000000
    4    4    3    2    2   -0.000000   -0.000000
    4    4    3    3    2    0.000000    0.000000
    4    4    3    4    2   -0.000000    0.000000
    4    4    3    5    2    0.000000    0.000000
    4    4    3    1    3    0.000000    0.000000
    4    4    3    2    3    0.000000    0.000000
    4    4    3    3    3   -0.000000    0.000000
    4    4    3    4    3   -0.000000   -0.000000
    4    4    3    5    3    0.000000   -0.000000
    4    4    3    1    4    0.000000   -0.000000
    4    4    3    2    4   -0.000000   -0.000000
    4    4    3    3    4   -0.000000    0.000000
    4    4    3    4    4   -0.000000   -0.000000
    4    4    3    5    4    0.000000   -0.000000
    4    4    3    1    5    0.000000   -0.000000
    4    4    3    2    5    0.000000   -0.000000
    4    4    3    3    5    0.000000    0.000000
    4    4    3    4    5    0.000000   -0.000000
    4    4    3    5    5    0.000000    0.000000
    4    4    4    1    1   -0.000001    0.000000
    4    4    4    2    1    0.000000    0.000000
    4    4    4    3    1   -0.000000    0.000000
    4    4    4    4    1    0.000000   -0.000000
    4    4    4    5    1   -0.000000   -0.000000
    4    4    4    1    2    0.000000   -0.000000
    4    4    4    2    2   -0.000002    0.000000
    4    4    4    3    2    0.000000    0.000000
    4    4    4    4    2   -0.000000    0.000000
    4    4    4    5    2    0.000000    0.000000
    4    4    4    1    3   -0.000000   -0.000000
    4    4    4    2    3    0.000000   -0.000000
    4    4    4    3    3   -0.000002    0.000000
    4    4    4    4    3   -0.000000   -0.000000
    4    4    4    5    3    0.000000    0.000000
    4    4    4    1    4    0.000000    0.000000
    4    4    4    2    4   -0.000000   -0.000000
    4    4    4    3    4   -0.000000    0.000000
    4    4    4    4    4   -0.000002    0.000000
    4    4    4    5    4   -0.000000    0.000000
    4    4    4    1    5   -0.000000    0.000000
    4    4    4    2    5    0.000000   -0.000000
    4    4    4    3    5    0.000000   -0.000000
    4    4    4    4    5   -0.000000   -0.000000
    4    4    4    5    5   -0.000002    0.000000
