 
             +---------------------------------------------------+
             |                                                   |
             |                   WANNIER90                       |
             |                                                   |
             +---------------------------------------------------+
             |                                                   |
             |        Welcome to the Maximally-Localized         |
             |        Generalized Wannier Functions code         |
             |            http://www.wannier.org                 |
             |                                                   |
             |                                                   |
             |  Wannier90 Developer Group:                       |
             |    Giovanni Pizzi    (EPFL)                       |
             |    Valerio Vitale    (Cambridge)                  |
             |    David Vanderbilt  (Rutgers University)         |
             |    Nicola Marzari    (EPFL)                       |
             |    Ivo Souza         (Universidad del Pais Vasco) |
             |    Arash A. Mostofi  (Imperial College London)    |
             |    Jonathan R. Yates (University of Oxford)       |
             |                                                   |
             |  For the full list of Wannier90 3.x authors,      |
             |  please check the code documentation and the      |
             |  README on the GitHub page of the code            |
             |                                                   |
             |                                                   |
             |  Please cite                                      |
             |                                                   |
             |  [ref] "Wannier90 as a community code:            |
             |        new features and applications",            |
             |        G. Pizzi et al., J. Phys. Cond. Matt. 32,  |
             |        165902 (2020).                             |
             |        http://doi.org/10.1088/1361-648X/ab51ff    |
             |                                                   |
             |  in any publications arising from the use of      |
             |  this code. For the method please cite            |
             |                                                   |
             |  [ref] "Maximally Localized Generalised Wannier   |
             |         Functions for Composite Energy Bands"     |
             |         N. Marzari and D. Vanderbilt              |
             |         Phys. Rev. B 56 12847 (1997)              |
             |                                                   |
             |  [ref] "Maximally Localized Wannier Functions     |
             |         for Entangled Energy Bands"               |
             |         I. Souza, N. Marzari and D. Vanderbilt    |
             |         Phys. Rev. B 65 035109 (2001)             |
             |                                                   |
             |                                                   |
             | Copyright (c) 1996-2020                           |
             |        The Wannier90 Developer Group and          |
             |        individual contributors                    |
             |                                                   |
             |      Release: 3.1.0        5th March    2020      |
             |                                                   |
             | This program is free software; you can            |
             | redistribute it and/or modify it under the terms  |
             | of the GNU General Public License as published by |
             | the Free Software Foundation; either version 2 of |
             | the License, or (at your option) any later version|
             |                                                   |
             | This program is distributed in the hope that it   |
             | will be useful, but WITHOUT ANY WARRANTY; without |
             | even the implied warranty of MERCHANTABILITY or   |
             | FITNESS FOR A PARTICULAR PURPOSE. See the GNU     |
             | General Public License for more details.          |
             |                                                   |
             | You should have received a copy of the GNU General|
             | Public License along with this program; if not,   |
             | write to the Free Software Foundation, Inc.,      |
             | 675 Mass Ave, Cambridge, MA 02139, USA.           |
             |                                                   |
             +---------------------------------------------------+
             |    Execution started on 19Feb2024 at 14:49:55     |
             +---------------------------------------------------+
 
 ******************************************************************************
 * -> Using CODATA 2006 constant values                                       *
 *    (http://physics.nist.gov/cuu/Constants/index.html)                      *
 * -> Using Bohr value from CODATA                                            *
 ******************************************************************************
 

 Running in serial (with serial executable)
 
                                    ------
                                    SYSTEM
                                    ------
 
                              Lattice Vectors (Ang)
                    a_1     4.066704   0.000000   0.000000
                    a_2     0.000000   4.066704   0.000000
                    a_3     0.000000   0.000000   4.066704
 
                   Unit Cell Volume:      67.25549  (Ang^3)
 
                        Reciprocal-Space Vectors (Ang^-1)
                    b_1     1.545031   0.000000   0.000000
                    b_2     0.000000   1.545031   0.000000
                    b_3     0.000000   0.000000   1.545031
  
 *----------------------------------------------------------------------------*
 |   Site       Fractional Coordinate          Cartesian Coordinate (Ang)     |
 +----------------------------------------------------------------------------+
 | Cu   1   0.50000   0.50000   0.50000   |    2.03335   2.03335   2.03335    |
 | K    1   0.00000   0.00000   0.00000   |    0.00000   0.00000   0.00000    |
 | F    1   0.00000   0.50000   0.50000   |    0.00000   2.03335   2.03335    |
 | F    2   0.50000   0.00000   0.50000   |    2.03335   0.00000   2.03335    |
 | F    3   0.50000   0.50000   0.00000   |    2.03335   2.03335   0.00000    |
 *----------------------------------------------------------------------------*
                                -----------
                                PROJECTIONS
                                -----------
  
 +----------------------------------------------------------------------------+
 |     Frac. Coord.   l mr  r        z-axis               x-axis          Z/a |
 +----------------------------------------------------------------------------+
 |  0.50  0.50  0.50  2  1  1  0.000  0.000  1.000  1.000  0.000  0.000   1.0 |
 |  0.50  0.50  0.50  2  2  1  0.000  0.000  1.000  1.000  0.000  0.000   1.0 |
 |  0.50  0.50  0.50  2  3  1  0.000  0.000  1.000  1.000  0.000  0.000   1.0 |
 |  0.50  0.50  0.50  2  4  1  0.000  0.000  1.000  1.000  0.000  0.000   1.0 |
 |  0.50  0.50  0.50  2  5  1  0.000  0.000  1.000  1.000  0.000  0.000   1.0 |
 +----------------------------------------------------------------------------+
  
                                ------------
                                K-POINT GRID
                                ------------
  
             Grid size = 10 x 10 x 10      Total points = 1000
  
 *----------------------------------------------------------------------------*
 | k-point      Fractional Coordinate        Cartesian Coordinate (Ang^-1)    |
 +----------------------------------------------------------------------------+
 |     1    0.00000   0.00000   0.00000   |    0.00000   0.00000   0.00000    |
 |     2    0.00000   0.00000   0.10000   |    0.00000   0.00000   0.15450    |
 |     3    0.00000   0.00000  -0.10000   |    0.00000   0.00000  -0.15450    |
 |     4    0.10000   0.00000   0.00000   |    0.15450   0.00000   0.00000    |
 |     5   -0.10000   0.00000   0.00000   |   -0.15450   0.00000   0.00000    |
 |     6    0.00000   0.10000   0.00000   |    0.00000   0.15450   0.00000    |
 |     7    0.00000  -0.10000   0.00000   |    0.00000  -0.15450   0.00000    |
 |     8    0.00000   0.00000   0.20000   |    0.00000   0.00000   0.30901    |
 |     9    0.00000   0.00000  -0.20000   |    0.00000   0.00000  -0.30901    |
 |    10    0.20000   0.00000   0.00000   |    0.30901   0.00000   0.00000    |
 |    11   -0.20000   0.00000   0.00000   |   -0.30901   0.00000   0.00000    |
 |    12    0.00000   0.20000   0.00000   |    0.00000   0.30901   0.00000    |
 |    13    0.00000  -0.20000   0.00000   |    0.00000  -0.30901   0.00000    |
 |    14    0.00000   0.00000   0.30000   |    0.00000   0.00000   0.46351    |
 |    15    0.00000   0.00000  -0.30000   |    0.00000   0.00000  -0.46351    |
 |    16    0.30000   0.00000   0.00000   |    0.46351   0.00000   0.00000    |
 |    17   -0.30000   0.00000   0.00000   |   -0.46351   0.00000   0.00000    |
 |    18    0.00000   0.30000   0.00000   |    0.00000   0.46351   0.00000    |
 |    19    0.00000  -0.30000   0.00000   |    0.00000  -0.46351   0.00000    |
 |    20    0.00000   0.00000   0.40000   |    0.00000   0.00000   0.61801    |
 |    21    0.00000   0.00000  -0.40000   |    0.00000   0.00000  -0.61801    |
 |    22    0.40000   0.00000   0.00000   |    0.61801   0.00000   0.00000    |
 |    23   -0.40000   0.00000   0.00000   |   -0.61801   0.00000   0.00000    |
 |    24    0.00000   0.40000   0.00000   |    0.00000   0.61801   0.00000    |
 |    25    0.00000  -0.40000   0.00000   |    0.00000  -0.61801   0.00000    |
 |    26    0.00000   0.00000   0.50000   |    0.00000   0.00000   0.77252    |
 |    27    0.50000   0.00000   0.00000   |    0.77252   0.00000   0.00000    |
 |    28    0.00000   0.50000   0.00000   |    0.00000   0.77252   0.00000    |
 |    29    0.00000   0.10000   0.10000   |    0.00000   0.15450   0.15450    |
 |    30    0.00000  -0.10000  -0.10000   |    0.00000  -0.15450  -0.15450    |
 |    31    0.00000  -0.10000   0.10000   |    0.00000  -0.15450   0.15450    |
 |    32    0.00000   0.10000  -0.10000   |    0.00000   0.15450  -0.15450    |
 |    33    0.10000   0.00000  -0.10000   |    0.15450   0.00000  -0.15450    |
 |    34   -0.10000   0.00000   0.10000   |   -0.15450   0.00000   0.15450    |
 |    35   -0.10000   0.00000  -0.10000   |   -0.15450   0.00000  -0.15450    |
 |    36    0.10000   0.00000   0.10000   |    0.15450   0.00000   0.15450    |
 |    37    0.10000  -0.10000   0.00000   |    0.15450  -0.15450   0.00000    |
 |    38   -0.10000   0.10000   0.00000   |   -0.15450   0.15450   0.00000    |
 |    39   -0.10000  -0.10000   0.00000   |   -0.15450  -0.15450   0.00000    |
 |    40    0.10000   0.10000   0.00000   |    0.15450   0.15450   0.00000    |
 |    41    0.00000   0.10000   0.20000   |    0.00000   0.15450   0.30901    |
 |    42    0.00000  -0.10000  -0.20000   |    0.00000  -0.15450  -0.30901    |
 |    43    0.00000  -0.10000   0.20000   |    0.00000  -0.15450   0.30901    |
 |    44    0.00000   0.10000  -0.20000   |    0.00000   0.15450  -0.30901    |
 |    45    0.10000   0.00000  -0.20000   |    0.15450   0.00000  -0.30901    |
 |    46   -0.10000   0.00000   0.20000   |   -0.15450   0.00000   0.30901    |
 |    47   -0.10000   0.00000  -0.20000   |   -0.15450   0.00000  -0.30901    |
 |    48    0.10000   0.00000   0.20000   |    0.15450   0.00000   0.30901    |
 |    49    0.20000  -0.10000   0.00000   |    0.30901  -0.15450   0.00000    |
 |    50   -0.20000   0.10000   0.00000   |   -0.30901   0.15450   0.00000    |
 |    51   -0.20000  -0.10000   0.00000   |   -0.30901  -0.15450   0.00000    |
 |    52    0.20000   0.10000   0.00000   |    0.30901   0.15450   0.00000    |
 |    53    0.00000   0.20000   0.10000   |    0.00000   0.30901   0.15450    |
 |    54    0.00000  -0.20000  -0.10000   |    0.00000  -0.30901  -0.15450    |
 |    55    0.00000   0.20000  -0.10000   |    0.00000   0.30901  -0.15450    |
 |    56    0.00000  -0.20000   0.10000   |    0.00000  -0.30901   0.15450    |
 |    57    0.10000   0.20000   0.00000   |    0.15450   0.30901   0.00000    |
 |    58   -0.10000  -0.20000   0.00000   |   -0.15450  -0.30901   0.00000    |
 |    59   -0.10000   0.20000   0.00000   |   -0.15450   0.30901   0.00000    |
 |    60    0.10000  -0.20000   0.00000   |    0.15450  -0.30901   0.00000    |
 |    61    0.20000   0.00000   0.10000   |    0.30901   0.00000   0.15450    |
 |    62   -0.20000   0.00000  -0.10000   |   -0.30901   0.00000  -0.15450    |
 |    63    0.20000   0.00000  -0.10000   |    0.30901   0.00000  -0.15450    |
 |    64   -0.20000   0.00000   0.10000   |   -0.30901   0.00000   0.15450    |
 |    65    0.00000   0.10000   0.30000   |    0.00000   0.15450   0.46351    |
 |    66    0.00000  -0.10000  -0.30000   |    0.00000  -0.15450  -0.46351    |
 |    67    0.00000  -0.10000   0.30000   |    0.00000  -0.15450   0.46351    |
 |    68    0.00000   0.10000  -0.30000   |    0.00000   0.15450  -0.46351    |
 |    69    0.10000   0.00000  -0.30000   |    0.15450   0.00000  -0.46351    |
 |    70   -0.10000   0.00000   0.30000   |   -0.15450   0.00000   0.46351    |
 |    71   -0.10000   0.00000  -0.30000   |   -0.15450   0.00000  -0.46351    |
 |    72    0.10000   0.00000   0.30000   |    0.15450   0.00000   0.46351    |
 |    73    0.30000  -0.10000   0.00000   |    0.46351  -0.15450   0.00000    |
 |    74   -0.30000   0.10000   0.00000   |   -0.46351   0.15450   0.00000    |
 |    75   -0.30000  -0.10000   0.00000   |   -0.46351  -0.15450   0.00000    |
 |    76    0.30000   0.10000   0.00000   |    0.46351   0.15450   0.00000    |
 |    77    0.00000   0.30000   0.10000   |    0.00000   0.46351   0.15450    |
 |    78    0.00000  -0.30000  -0.10000   |    0.00000  -0.46351  -0.15450    |
 |    79    0.00000   0.30000  -0.10000   |    0.00000   0.46351  -0.15450    |
 |    80    0.00000  -0.30000   0.10000   |    0.00000  -0.46351   0.15450    |
 |    81    0.10000   0.30000   0.00000   |    0.15450   0.46351   0.00000    |
 |    82   -0.10000  -0.30000   0.00000   |   -0.15450  -0.46351   0.00000    |
 |    83   -0.10000   0.30000   0.00000   |   -0.15450   0.46351   0.00000    |
 |    84    0.10000  -0.30000   0.00000   |    0.15450  -0.46351   0.00000    |
 |    85    0.30000   0.00000   0.10000   |    0.46351   0.00000   0.15450    |
 |    86   -0.30000   0.00000  -0.10000   |   -0.46351   0.00000  -0.15450    |
 |    87    0.30000   0.00000  -0.10000   |    0.46351   0.00000  -0.15450    |
 |    88   -0.30000   0.00000   0.10000   |   -0.46351   0.00000   0.15450    |
 |    89    0.00000   0.10000   0.40000   |    0.00000   0.15450   0.61801    |
 |    90    0.00000  -0.10000  -0.40000   |    0.00000  -0.15450  -0.61801    |
 |    91    0.00000  -0.10000   0.40000   |    0.00000  -0.15450   0.61801    |
 |    92    0.00000   0.10000  -0.40000   |    0.00000   0.15450  -0.61801    |
 |    93    0.10000   0.00000  -0.40000   |    0.15450   0.00000  -0.61801    |
 |    94   -0.10000   0.00000   0.40000   |   -0.15450   0.00000   0.61801    |
 |    95   -0.10000   0.00000  -0.40000   |   -0.15450   0.00000  -0.61801    |
 |    96    0.10000   0.00000   0.40000   |    0.15450   0.00000   0.61801    |
 |    97    0.40000  -0.10000   0.00000   |    0.61801  -0.15450   0.00000    |
 |    98   -0.40000   0.10000   0.00000   |   -0.61801   0.15450   0.00000    |
 |    99   -0.40000  -0.10000   0.00000   |   -0.61801  -0.15450   0.00000    |
 |   100    0.40000   0.10000   0.00000   |    0.61801   0.15450   0.00000    |
 |   101    0.00000   0.40000   0.10000   |    0.00000   0.61801   0.15450    |
 |   102    0.00000  -0.40000  -0.10000   |    0.00000  -0.61801  -0.15450    |
 |   103    0.00000   0.40000  -0.10000   |    0.00000   0.61801  -0.15450    |
 |   104    0.00000  -0.40000   0.10000   |    0.00000  -0.61801   0.15450    |
 |   105    0.10000   0.40000   0.00000   |    0.15450   0.61801   0.00000    |
 |   106   -0.10000  -0.40000   0.00000   |   -0.15450  -0.61801   0.00000    |
 |   107   -0.10000   0.40000   0.00000   |   -0.15450   0.61801   0.00000    |
 |   108    0.10000  -0.40000   0.00000   |    0.15450  -0.61801   0.00000    |
 |   109    0.40000   0.00000   0.10000   |    0.61801   0.00000   0.15450    |
 |   110   -0.40000   0.00000  -0.10000   |   -0.61801   0.00000  -0.15450    |
 |   111    0.40000   0.00000  -0.10000   |    0.61801   0.00000  -0.15450    |
 |   112   -0.40000   0.00000   0.10000   |   -0.61801   0.00000   0.15450    |
 |   113    0.00000   0.10000   0.50000   |    0.00000   0.15450   0.77252    |
 |   114    0.00000  -0.10000   0.50000   |    0.00000  -0.15450   0.77252    |
 |   115    0.10000   0.00000   0.50000   |    0.15450   0.00000   0.77252    |
 |   116   -0.10000   0.00000   0.50000   |   -0.15450   0.00000   0.77252    |
 |   117    0.50000  -0.10000   0.00000   |    0.77252  -0.15450   0.00000    |
 |   118    0.50000   0.10000   0.00000   |    0.77252   0.15450   0.00000    |
 |   119    0.00000   0.50000   0.10000   |    0.00000   0.77252   0.15450    |
 |   120    0.00000   0.50000  -0.10000   |    0.00000   0.77252  -0.15450    |
 |   121    0.10000   0.50000   0.00000   |    0.15450   0.77252   0.00000    |
 |   122   -0.10000   0.50000   0.00000   |   -0.15450   0.77252   0.00000    |
 |   123    0.50000   0.00000   0.10000   |    0.77252   0.00000   0.15450    |
 |   124    0.50000   0.00000  -0.10000   |    0.77252   0.00000  -0.15450    |
 |   125    0.00000   0.20000   0.20000   |    0.00000   0.30901   0.30901    |
 |   126    0.00000  -0.20000  -0.20000   |    0.00000  -0.30901  -0.30901    |
 |   127    0.00000  -0.20000   0.20000   |    0.00000  -0.30901   0.30901    |
 |   128    0.00000   0.20000  -0.20000   |    0.00000   0.30901  -0.30901    |
 |   129    0.20000   0.00000  -0.20000   |    0.30901   0.00000  -0.30901    |
 |   130   -0.20000   0.00000   0.20000   |   -0.30901   0.00000   0.30901    |
 |   131   -0.20000   0.00000  -0.20000   |   -0.30901   0.00000  -0.30901    |
 |   132    0.20000   0.00000   0.20000   |    0.30901   0.00000   0.30901    |
 |   133    0.20000  -0.20000   0.00000   |    0.30901  -0.30901   0.00000    |
 |   134   -0.20000   0.20000   0.00000   |   -0.30901   0.30901   0.00000    |
 |   135   -0.20000  -0.20000   0.00000   |   -0.30901  -0.30901   0.00000    |
 |   136    0.20000   0.20000   0.00000   |    0.30901   0.30901   0.00000    |
 |   137    0.00000   0.20000   0.30000   |    0.00000   0.30901   0.46351    |
 |   138    0.00000  -0.20000  -0.30000   |    0.00000  -0.30901  -0.46351    |
 |   139    0.00000  -0.20000   0.30000   |    0.00000  -0.30901   0.46351    |
 |   140    0.00000   0.20000  -0.30000   |    0.00000   0.30901  -0.46351    |
 |   141    0.20000   0.00000  -0.30000   |    0.30901   0.00000  -0.46351    |
 |   142   -0.20000   0.00000   0.30000   |   -0.30901   0.00000   0.46351    |
 |   143   -0.20000   0.00000  -0.30000   |   -0.30901   0.00000  -0.46351    |
 |   144    0.20000   0.00000   0.30000   |    0.30901   0.00000   0.46351    |
 |   145    0.30000  -0.20000   0.00000   |    0.46351  -0.30901   0.00000    |
 |   146   -0.30000   0.20000   0.00000   |   -0.46351   0.30901   0.00000    |
 |   147   -0.30000  -0.20000   0.00000   |   -0.46351  -0.30901   0.00000    |
 |   148    0.30000   0.20000   0.00000   |    0.46351   0.30901   0.00000    |
 |   149    0.00000   0.30000   0.20000   |    0.00000   0.46351   0.30901    |
 |   150    0.00000  -0.30000  -0.20000   |    0.00000  -0.46351  -0.30901    |
 |   151    0.00000   0.30000  -0.20000   |    0.00000   0.46351  -0.30901    |
 |   152    0.00000  -0.30000   0.20000   |    0.00000  -0.46351   0.30901    |
 |   153    0.20000   0.30000   0.00000   |    0.30901   0.46351   0.00000    |
 |   154   -0.20000  -0.30000   0.00000   |   -0.30901  -0.46351   0.00000    |
 |   155   -0.20000   0.30000   0.00000   |   -0.30901   0.46351   0.00000    |
 |   156    0.20000  -0.30000   0.00000   |    0.30901  -0.46351   0.00000    |
 |   157    0.30000   0.00000   0.20000   |    0.46351   0.00000   0.30901    |
 |   158   -0.30000   0.00000  -0.20000   |   -0.46351   0.00000  -0.30901    |
 |   159    0.30000   0.00000  -0.20000   |    0.46351   0.00000  -0.30901    |
 |   160   -0.30000   0.00000   0.20000   |   -0.46351   0.00000   0.30901    |
 |   161    0.00000   0.20000   0.40000   |    0.00000   0.30901   0.61801    |
 |   162    0.00000  -0.20000  -0.40000   |    0.00000  -0.30901  -0.61801    |
 |   163    0.00000  -0.20000   0.40000   |    0.00000  -0.30901   0.61801    |
 |   164    0.00000   0.20000  -0.40000   |    0.00000   0.30901  -0.61801    |
 |   165    0.20000   0.00000  -0.40000   |    0.30901   0.00000  -0.61801    |
 |   166   -0.20000   0.00000   0.40000   |   -0.30901   0.00000   0.61801    |
 |   167   -0.20000   0.00000  -0.40000   |   -0.30901   0.00000  -0.61801    |
 |   168    0.20000   0.00000   0.40000   |    0.30901   0.00000   0.61801    |
 |   169    0.40000  -0.20000   0.00000   |    0.61801  -0.30901   0.00000    |
 |   170   -0.40000   0.20000   0.00000   |   -0.61801   0.30901   0.00000    |
 |   171   -0.40000  -0.20000   0.00000   |   -0.61801  -0.30901   0.00000    |
 |   172    0.40000   0.20000   0.00000   |    0.61801   0.30901   0.00000    |
 |   173    0.00000   0.40000   0.20000   |    0.00000   0.61801   0.30901    |
 |   174    0.00000  -0.40000  -0.20000   |    0.00000  -0.61801  -0.30901    |
 |   175    0.00000   0.40000  -0.20000   |    0.00000   0.61801  -0.30901    |
 |   176    0.00000  -0.40000   0.20000   |    0.00000  -0.61801   0.30901    |
 |   177    0.20000   0.40000   0.00000   |    0.30901   0.61801   0.00000    |
 |   178   -0.20000  -0.40000   0.00000   |   -0.30901  -0.61801   0.00000    |
 |   179   -0.20000   0.40000   0.00000   |   -0.30901   0.61801   0.00000    |
 |   180    0.20000  -0.40000   0.00000   |    0.30901  -0.61801   0.00000    |
 |   181    0.40000   0.00000   0.20000   |    0.61801   0.00000   0.30901    |
 |   182   -0.40000   0.00000  -0.20000   |   -0.61801   0.00000  -0.30901    |
 |   183    0.40000   0.00000  -0.20000   |    0.61801   0.00000  -0.30901    |
 |   184   -0.40000   0.00000   0.20000   |   -0.61801   0.00000   0.30901    |
 |   185    0.00000   0.20000   0.50000   |    0.00000   0.30901   0.77252    |
 |   186    0.00000  -0.20000   0.50000   |    0.00000  -0.30901   0.77252    |
 |   187    0.20000   0.00000   0.50000   |    0.30901   0.00000   0.77252    |
 |   188   -0.20000   0.00000   0.50000   |   -0.30901   0.00000   0.77252    |
 |   189    0.50000  -0.20000   0.00000   |    0.77252  -0.30901   0.00000    |
 |   190    0.50000   0.20000   0.00000   |    0.77252   0.30901   0.00000    |
 |   191    0.00000   0.50000   0.20000   |    0.00000   0.77252   0.30901    |
 |   192    0.00000   0.50000  -0.20000   |    0.00000   0.77252  -0.30901    |
 |   193    0.20000   0.50000   0.00000   |    0.30901   0.77252   0.00000    |
 |   194   -0.20000   0.50000   0.00000   |   -0.30901   0.77252   0.00000    |
 |   195    0.50000   0.00000   0.20000   |    0.77252   0.00000   0.30901    |
 |   196    0.50000   0.00000  -0.20000   |    0.77252   0.00000  -0.30901    |
 |   197    0.00000   0.30000   0.30000   |    0.00000   0.46351   0.46351    |
 |   198    0.00000  -0.30000  -0.30000   |    0.00000  -0.46351  -0.46351    |
 |   199    0.00000  -0.30000   0.30000   |    0.00000  -0.46351   0.46351    |
 |   200    0.00000   0.30000  -0.30000   |    0.00000   0.46351  -0.46351    |
 |   201    0.30000   0.00000  -0.30000   |    0.46351   0.00000  -0.46351    |
 |   202   -0.30000   0.00000   0.30000   |   -0.46351   0.00000   0.46351    |
 |   203   -0.30000   0.00000  -0.30000   |   -0.46351   0.00000  -0.46351    |
 |   204    0.30000   0.00000   0.30000   |    0.46351   0.00000   0.46351    |
 |   205    0.30000  -0.30000   0.00000   |    0.46351  -0.46351   0.00000    |
 |   206   -0.30000   0.30000   0.00000   |   -0.46351   0.46351   0.00000    |
 |   207   -0.30000  -0.30000   0.00000   |   -0.46351  -0.46351   0.00000    |
 |   208    0.30000   0.30000   0.00000   |    0.46351   0.46351   0.00000    |
 |   209    0.00000   0.30000   0.40000   |    0.00000   0.46351   0.61801    |
 |   210    0.00000  -0.30000  -0.40000   |    0.00000  -0.46351  -0.61801    |
 |   211    0.00000  -0.30000   0.40000   |    0.00000  -0.46351   0.61801    |
 |   212    0.00000   0.30000  -0.40000   |    0.00000   0.46351  -0.61801    |
 |   213    0.30000   0.00000  -0.40000   |    0.46351   0.00000  -0.61801    |
 |   214   -0.30000   0.00000   0.40000   |   -0.46351   0.00000   0.61801    |
 |   215   -0.30000   0.00000  -0.40000   |   -0.46351   0.00000  -0.61801    |
 |   216    0.30000   0.00000   0.40000   |    0.46351   0.00000   0.61801    |
 |   217    0.40000  -0.30000   0.00000   |    0.61801  -0.46351   0.00000    |
 |   218   -0.40000   0.30000   0.00000   |   -0.61801   0.46351   0.00000    |
 |   219   -0.40000  -0.30000   0.00000   |   -0.61801  -0.46351   0.00000    |
 |   220    0.40000   0.30000   0.00000   |    0.61801   0.46351   0.00000    |
 |   221    0.00000   0.40000   0.30000   |    0.00000   0.61801   0.46351    |
 |   222    0.00000  -0.40000  -0.30000   |    0.00000  -0.61801  -0.46351    |
 |   223    0.00000   0.40000  -0.30000   |    0.00000   0.61801  -0.46351    |
 |   224    0.00000  -0.40000   0.30000   |    0.00000  -0.61801   0.46351    |
 |   225    0.30000   0.40000   0.00000   |    0.46351   0.61801   0.00000    |
 |   226   -0.30000  -0.40000   0.00000   |   -0.46351  -0.61801   0.00000    |
 |   227   -0.30000   0.40000   0.00000   |   -0.46351   0.61801   0.00000    |
 |   228    0.30000  -0.40000   0.00000   |    0.46351  -0.61801   0.00000    |
 |   229    0.40000   0.00000   0.30000   |    0.61801   0.00000   0.46351    |
 |   230   -0.40000   0.00000  -0.30000   |   -0.61801   0.00000  -0.46351    |
 |   231    0.40000   0.00000  -0.30000   |    0.61801   0.00000  -0.46351    |
 |   232   -0.40000   0.00000   0.30000   |   -0.61801   0.00000   0.46351    |
 |   233    0.00000   0.30000   0.50000   |    0.00000   0.46351   0.77252    |
 |   234    0.00000  -0.30000   0.50000   |    0.00000  -0.46351   0.77252    |
 |   235    0.30000   0.00000   0.50000   |    0.46351   0.00000   0.77252    |
 |   236   -0.30000   0.00000   0.50000   |   -0.46351   0.00000   0.77252    |
 |   237    0.50000  -0.30000   0.00000   |    0.77252  -0.46351   0.00000    |
 |   238    0.50000   0.30000   0.00000   |    0.77252   0.46351   0.00000    |
 |   239    0.00000   0.50000   0.30000   |    0.00000   0.77252   0.46351    |
 |   240    0.00000   0.50000  -0.30000   |    0.00000   0.77252  -0.46351    |
 |   241    0.30000   0.50000   0.00000   |    0.46351   0.77252   0.00000    |
 |   242   -0.30000   0.50000   0.00000   |   -0.46351   0.77252   0.00000    |
 |   243    0.50000   0.00000   0.30000   |    0.77252   0.00000   0.46351    |
 |   244    0.50000   0.00000  -0.30000   |    0.77252   0.00000  -0.46351    |
 |   245    0.00000   0.40000   0.40000   |    0.00000   0.61801   0.61801    |
 |   246    0.00000  -0.40000  -0.40000   |    0.00000  -0.61801  -0.61801    |
 |   247    0.00000  -0.40000   0.40000   |    0.00000  -0.61801   0.61801    |
 |   248    0.00000   0.40000  -0.40000   |    0.00000   0.61801  -0.61801    |
 |   249    0.40000   0.00000  -0.40000   |    0.61801   0.00000  -0.61801    |
 |   250   -0.40000   0.00000   0.40000   |   -0.61801   0.00000   0.61801    |
 |   251   -0.40000   0.00000  -0.40000   |   -0.61801   0.00000  -0.61801    |
 |   252    0.40000   0.00000   0.40000   |    0.61801   0.00000   0.61801    |
 |   253    0.40000  -0.40000   0.00000   |    0.61801  -0.61801   0.00000    |
 |   254   -0.40000   0.40000   0.00000   |   -0.61801   0.61801   0.00000    |
 |   255   -0.40000  -0.40000   0.00000   |   -0.61801  -0.61801   0.00000    |
 |   256    0.40000   0.40000   0.00000   |    0.61801   0.61801   0.00000    |
 |   257    0.00000   0.40000   0.50000   |    0.00000   0.61801   0.77252    |
 |   258    0.00000  -0.40000   0.50000   |    0.00000  -0.61801   0.77252    |
 |   259    0.40000   0.00000   0.50000   |    0.61801   0.00000   0.77252    |
 |   260   -0.40000   0.00000   0.50000   |   -0.61801   0.00000   0.77252    |
 |   261    0.50000  -0.40000   0.00000   |    0.77252  -0.61801   0.00000    |
 |   262    0.50000   0.40000   0.00000   |    0.77252   0.61801   0.00000    |
 |   263    0.00000   0.50000   0.40000   |    0.00000   0.77252   0.61801    |
 |   264    0.00000   0.50000  -0.40000   |    0.00000   0.77252  -0.61801    |
 |   265    0.40000   0.50000   0.00000   |    0.61801   0.77252   0.00000    |
 |   266   -0.40000   0.50000   0.00000   |   -0.61801   0.77252   0.00000    |
 |   267    0.50000   0.00000   0.40000   |    0.77252   0.00000   0.61801    |
 |   268    0.50000   0.00000  -0.40000   |    0.77252   0.00000  -0.61801    |
 |   269    0.00000   0.50000   0.50000   |    0.00000   0.77252   0.77252    |
 |   270    0.50000   0.00000   0.50000   |    0.77252   0.00000   0.77252    |
 |   271    0.50000   0.50000   0.00000   |    0.77252   0.77252   0.00000    |
 |   272    0.10000   0.10000   0.10000   |    0.15450   0.15450   0.15450    |
 |   273   -0.10000  -0.10000  -0.10000   |   -0.15450  -0.15450  -0.15450    |
 |   274   -0.10000  -0.10000   0.10000   |   -0.15450  -0.15450   0.15450    |
 |   275    0.10000   0.10000  -0.10000   |    0.15450   0.15450  -0.15450    |
 |   276   -0.10000   0.10000  -0.10000   |   -0.15450   0.15450  -0.15450    |
 |   277    0.10000  -0.10000   0.10000   |    0.15450  -0.15450   0.15450    |
 |   278    0.10000  -0.10000  -0.10000   |    0.15450  -0.15450  -0.15450    |
 |   279   -0.10000   0.10000   0.10000   |   -0.15450   0.15450   0.15450    |
 |   280    0.10000   0.10000   0.20000   |    0.15450   0.15450   0.30901    |
 |   281   -0.10000  -0.10000  -0.20000   |   -0.15450  -0.15450  -0.30901    |
 |   282   -0.10000  -0.10000   0.20000   |   -0.15450  -0.15450   0.30901    |
 |   283    0.10000   0.10000  -0.20000   |    0.15450   0.15450  -0.30901    |
 |   284   -0.10000   0.10000  -0.20000   |   -0.15450   0.15450  -0.30901    |
 |   285    0.10000  -0.10000   0.20000   |    0.15450  -0.15450   0.30901    |
 |   286    0.10000  -0.10000  -0.20000   |    0.15450  -0.15450  -0.30901    |
 |   287   -0.10000   0.10000   0.20000   |   -0.15450   0.15450   0.30901    |
 |   288    0.20000  -0.10000   0.10000   |    0.30901  -0.15450   0.15450    |
 |   289   -0.20000   0.10000  -0.10000   |   -0.30901   0.15450  -0.15450    |
 |   290   -0.20000  -0.10000  -0.10000   |   -0.30901  -0.15450  -0.15450    |
 |   291    0.20000   0.10000   0.10000   |    0.30901   0.15450   0.15450    |
 |   292    0.20000   0.10000  -0.10000   |    0.30901   0.15450  -0.15450    |
 |   293   -0.20000  -0.10000   0.10000   |   -0.30901  -0.15450   0.15450    |
 |   294   -0.20000   0.10000   0.10000   |   -0.30901   0.15450   0.15450    |
 |   295    0.20000  -0.10000  -0.10000   |    0.30901  -0.15450  -0.15450    |
 |   296   -0.10000   0.20000   0.10000   |   -0.15450   0.30901   0.15450    |
 |   297    0.10000  -0.20000  -0.10000   |    0.15450  -0.30901  -0.15450    |
 |   298   -0.10000  -0.20000  -0.10000   |   -0.15450  -0.30901  -0.15450    |
 |   299    0.10000   0.20000   0.10000   |    0.15450   0.30901   0.15450    |
 |   300    0.10000   0.20000  -0.10000   |    0.15450   0.30901  -0.15450    |
 |   301   -0.10000  -0.20000   0.10000   |   -0.15450  -0.30901   0.15450    |
 |   302    0.10000  -0.20000   0.10000   |    0.15450  -0.30901   0.15450    |
 |   303   -0.10000   0.20000  -0.10000   |   -0.15450   0.30901  -0.15450    |
 |   304    0.10000   0.10000   0.30000   |    0.15450   0.15450   0.46351    |
 |   305   -0.10000  -0.10000  -0.30000   |   -0.15450  -0.15450  -0.46351    |
 |   306   -0.10000  -0.10000   0.30000   |   -0.15450  -0.15450   0.46351    |
 |   307    0.10000   0.10000  -0.30000   |    0.15450   0.15450  -0.46351    |
 |   308   -0.10000   0.10000  -0.30000   |   -0.15450   0.15450  -0.46351    |
 |   309    0.10000  -0.10000   0.30000   |    0.15450  -0.15450   0.46351    |
 |   310    0.10000  -0.10000  -0.30000   |    0.15450  -0.15450  -0.46351    |
 |   311   -0.10000   0.10000   0.30000   |   -0.15450   0.15450   0.46351    |
 |   312    0.30000  -0.10000   0.10000   |    0.46351  -0.15450   0.15450    |
 |   313   -0.30000   0.10000  -0.10000   |   -0.46351   0.15450  -0.15450    |
 |   314   -0.30000  -0.10000  -0.10000   |   -0.46351  -0.15450  -0.15450    |
 |   315    0.30000   0.10000   0.10000   |    0.46351   0.15450   0.15450    |
 |   316    0.30000   0.10000  -0.10000   |    0.46351   0.15450  -0.15450    |
 |   317   -0.30000  -0.10000   0.10000   |   -0.46351  -0.15450   0.15450    |
 |   318   -0.30000   0.10000   0.10000   |   -0.46351   0.15450   0.15450    |
 |   319    0.30000  -0.10000  -0.10000   |    0.46351  -0.15450  -0.15450    |
 |   320   -0.10000   0.30000   0.10000   |   -0.15450   0.46351   0.15450    |
 |   321    0.10000  -0.30000  -0.10000   |    0.15450  -0.46351  -0.15450    |
 |   322   -0.10000  -0.30000  -0.10000   |   -0.15450  -0.46351  -0.15450    |
 |   323    0.10000   0.30000   0.10000   |    0.15450   0.46351   0.15450    |
 |   324    0.10000   0.30000  -0.10000   |    0.15450   0.46351  -0.15450    |
 |   325   -0.10000  -0.30000   0.10000   |   -0.15450  -0.46351   0.15450    |
 |   326    0.10000  -0.30000   0.10000   |    0.15450  -0.46351   0.15450    |
 |   327   -0.10000   0.30000  -0.10000   |   -0.15450   0.46351  -0.15450    |
 |   328    0.10000   0.10000   0.40000   |    0.15450   0.15450   0.61801    |
 |   329   -0.10000  -0.10000  -0.40000   |   -0.15450  -0.15450  -0.61801    |
 |   330   -0.10000  -0.10000   0.40000   |   -0.15450  -0.15450   0.61801    |
 |   331    0.10000   0.10000  -0.40000   |    0.15450   0.15450  -0.61801    |
 |   332   -0.10000   0.10000  -0.40000   |   -0.15450   0.15450  -0.61801    |
 |   333    0.10000  -0.10000   0.40000   |    0.15450  -0.15450   0.61801    |
 |   334    0.10000  -0.10000  -0.40000   |    0.15450  -0.15450  -0.61801    |
 |   335   -0.10000   0.10000   0.40000   |   -0.15450   0.15450   0.61801    |
 |   336    0.40000  -0.10000   0.10000   |    0.61801  -0.15450   0.15450    |
 |   337   -0.40000   0.10000  -0.10000   |   -0.61801   0.15450  -0.15450    |
 |   338   -0.40000  -0.10000  -0.10000   |   -0.61801  -0.15450  -0.15450    |
 |   339    0.40000   0.10000   0.10000   |    0.61801   0.15450   0.15450    |
 |   340    0.40000   0.10000  -0.10000   |    0.61801   0.15450  -0.15450    |
 |   341   -0.40000  -0.10000   0.10000   |   -0.61801  -0.15450   0.15450    |
 |   342   -0.40000   0.10000   0.10000   |   -0.61801   0.15450   0.15450    |
 |   343    0.40000  -0.10000  -0.10000   |    0.61801  -0.15450  -0.15450    |
 |   344   -0.10000   0.40000   0.10000   |   -0.15450   0.61801   0.15450    |
 |   345    0.10000  -0.40000  -0.10000   |    0.15450  -0.61801  -0.15450    |
 |   346   -0.10000  -0.40000  -0.10000   |   -0.15450  -0.61801  -0.15450    |
 |   347    0.10000   0.40000   0.10000   |    0.15450   0.61801   0.15450    |
 |   348    0.10000   0.40000  -0.10000   |    0.15450   0.61801  -0.15450    |
 |   349   -0.10000  -0.40000   0.10000   |   -0.15450  -0.61801   0.15450    |
 |   350    0.10000  -0.40000   0.10000   |    0.15450  -0.61801   0.15450    |
 |   351   -0.10000   0.40000  -0.10000   |   -0.15450   0.61801  -0.15450    |
 |   352    0.10000   0.10000   0.50000   |    0.15450   0.15450   0.77252    |
 |   353   -0.10000  -0.10000   0.50000   |   -0.15450  -0.15450   0.77252    |
 |   354   -0.10000   0.10000   0.50000   |   -0.15450   0.15450   0.77252    |
 |   355    0.10000  -0.10000   0.50000   |    0.15450  -0.15450   0.77252    |
 |   356    0.50000  -0.10000   0.10000   |    0.77252  -0.15450   0.15450    |
 |   357    0.50000   0.10000  -0.10000   |    0.77252   0.15450  -0.15450    |
 |   358    0.50000  -0.10000  -0.10000   |    0.77252  -0.15450  -0.15450    |
 |   359    0.50000   0.10000   0.10000   |    0.77252   0.15450   0.15450    |
 |   360   -0.10000   0.50000   0.10000   |   -0.15450   0.77252   0.15450    |
 |   361    0.10000   0.50000  -0.10000   |    0.15450   0.77252  -0.15450    |
 |   362   -0.10000   0.50000  -0.10000   |   -0.15450   0.77252  -0.15450    |
 |   363    0.10000   0.50000   0.10000   |    0.15450   0.77252   0.15450    |
 |   364    0.10000   0.20000   0.20000   |    0.15450   0.30901   0.30901    |
 |   365   -0.10000  -0.20000  -0.20000   |   -0.15450  -0.30901  -0.30901    |
 |   366   -0.10000  -0.20000   0.20000   |   -0.15450  -0.30901   0.30901    |
 |   367    0.10000   0.20000  -0.20000   |    0.15450   0.30901  -0.30901    |
 |   368   -0.10000   0.20000  -0.20000   |   -0.15450   0.30901  -0.30901    |
 |   369    0.10000  -0.20000   0.20000   |    0.15450  -0.30901   0.30901    |
 |   370    0.10000  -0.20000  -0.20000   |    0.15450  -0.30901  -0.30901    |
 |   371   -0.10000   0.20000   0.20000   |   -0.15450   0.30901   0.30901    |
 |   372    0.20000   0.10000  -0.20000   |    0.30901   0.15450  -0.30901    |
 |   373   -0.20000  -0.10000   0.20000   |   -0.30901  -0.15450   0.30901    |
 |   374   -0.20000  -0.10000  -0.20000   |   -0.30901  -0.15450  -0.30901    |
 |   375    0.20000   0.10000   0.20000   |    0.30901   0.15450   0.30901    |
 |   376    0.20000  -0.10000   0.20000   |    0.30901  -0.15450   0.30901    |
 |   377   -0.20000   0.10000  -0.20000   |   -0.30901   0.15450  -0.30901    |
 |   378   -0.20000   0.10000   0.20000   |   -0.30901   0.15450   0.30901    |
 |   379    0.20000  -0.10000  -0.20000   |    0.30901  -0.15450  -0.30901    |
 |   380    0.20000  -0.20000   0.10000   |    0.30901  -0.30901   0.15450    |
 |   381   -0.20000   0.20000  -0.10000   |   -0.30901   0.30901  -0.15450    |
 |   382   -0.20000  -0.20000  -0.10000   |   -0.30901  -0.30901  -0.15450    |
 |   383    0.20000   0.20000   0.10000   |    0.30901   0.30901   0.15450    |
 |   384    0.20000   0.20000  -0.10000   |    0.30901   0.30901  -0.15450    |
 |   385   -0.20000  -0.20000   0.10000   |   -0.30901  -0.30901   0.15450    |
 |   386   -0.20000   0.20000   0.10000   |   -0.30901   0.30901   0.15450    |
 |   387    0.20000  -0.20000  -0.10000   |    0.30901  -0.30901  -0.15450    |
 |   388    0.10000   0.20000   0.30000   |    0.15450   0.30901   0.46351    |
 |   389   -0.10000  -0.20000  -0.30000   |   -0.15450  -0.30901  -0.46351    |
 |   390   -0.10000  -0.20000   0.30000   |   -0.15450  -0.30901   0.46351    |
 |   391    0.10000   0.20000  -0.30000   |    0.15450   0.30901  -0.46351    |
 |   392   -0.10000   0.20000  -0.30000   |   -0.15450   0.30901  -0.46351    |
 |   393    0.10000  -0.20000   0.30000   |    0.15450  -0.30901   0.46351    |
 |   394    0.10000  -0.20000  -0.30000   |    0.15450  -0.30901  -0.46351    |
 |   395   -0.10000   0.20000   0.30000   |   -0.15450   0.30901   0.46351    |
 |   396    0.20000   0.10000  -0.30000   |    0.30901   0.15450  -0.46351    |
 |   397   -0.20000  -0.10000   0.30000   |   -0.30901  -0.15450   0.46351    |
 |   398   -0.20000  -0.10000  -0.30000   |   -0.30901  -0.15450  -0.46351    |
 |   399    0.20000   0.10000   0.30000   |    0.30901   0.15450   0.46351    |
 |   400    0.20000  -0.10000   0.30000   |    0.30901  -0.15450   0.46351    |
 |   401   -0.20000   0.10000  -0.30000   |   -0.30901   0.15450  -0.46351    |
 |   402   -0.20000   0.10000   0.30000   |   -0.30901   0.15450   0.46351    |
 |   403    0.20000  -0.10000  -0.30000   |    0.30901  -0.15450  -0.46351    |
 |   404    0.30000  -0.20000   0.10000   |    0.46351  -0.30901   0.15450    |
 |   405   -0.30000   0.20000  -0.10000   |   -0.46351   0.30901  -0.15450    |
 |   406   -0.30000  -0.20000  -0.10000   |   -0.46351  -0.30901  -0.15450    |
 |   407    0.30000   0.20000   0.10000   |    0.46351   0.30901   0.15450    |
 |   408    0.30000   0.20000  -0.10000   |    0.46351   0.30901  -0.15450    |
 |   409   -0.30000  -0.20000   0.10000   |   -0.46351  -0.30901   0.15450    |
 |   410   -0.30000   0.20000   0.10000   |   -0.46351   0.30901   0.15450    |
 |   411    0.30000  -0.20000  -0.10000   |    0.46351  -0.30901  -0.15450    |
 |   412   -0.10000   0.30000   0.20000   |   -0.15450   0.46351   0.30901    |
 |   413    0.10000  -0.30000  -0.20000   |    0.15450  -0.46351  -0.30901    |
 |   414   -0.10000  -0.30000  -0.20000   |   -0.15450  -0.46351  -0.30901    |
 |   415    0.10000   0.30000   0.20000   |    0.15450   0.46351   0.30901    |
 |   416    0.10000   0.30000  -0.20000   |    0.15450   0.46351  -0.30901    |
 |   417   -0.10000  -0.30000   0.20000   |   -0.15450  -0.46351   0.30901    |
 |   418    0.10000  -0.30000   0.20000   |    0.15450  -0.46351   0.30901    |
 |   419   -0.10000   0.30000  -0.20000   |   -0.15450   0.46351  -0.30901    |
 |   420    0.20000   0.30000   0.10000   |    0.30901   0.46351   0.15450    |
 |   421   -0.20000  -0.30000  -0.10000   |   -0.30901  -0.46351  -0.15450    |
 |   422   -0.20000   0.30000  -0.10000   |   -0.30901   0.46351  -0.15450    |
 |   423    0.20000  -0.30000   0.10000   |    0.30901  -0.46351   0.15450    |
 |   424    0.20000  -0.30000  -0.10000   |    0.30901  -0.46351  -0.15450    |
 |   425   -0.20000   0.30000   0.10000   |   -0.30901   0.46351   0.15450    |
 |   426   -0.20000  -0.30000   0.10000   |   -0.30901  -0.46351   0.15450    |
 |   427    0.20000   0.30000  -0.10000   |    0.30901   0.46351  -0.15450    |
 |   428    0.30000   0.10000   0.20000   |    0.46351   0.15450   0.30901    |
 |   429   -0.30000  -0.10000  -0.20000   |   -0.46351  -0.15450  -0.30901    |
 |   430    0.30000  -0.10000  -0.20000   |    0.46351  -0.15450  -0.30901    |
 |   431   -0.30000   0.10000   0.20000   |   -0.46351   0.15450   0.30901    |
 |   432   -0.30000  -0.10000   0.20000   |   -0.46351  -0.15450   0.30901    |
 |   433    0.30000   0.10000  -0.20000   |    0.46351   0.15450  -0.30901    |
 |   434   -0.30000   0.10000  -0.20000   |   -0.46351   0.15450  -0.30901    |
 |   435    0.30000  -0.10000   0.20000   |    0.46351  -0.15450   0.30901    |
 |   436    0.10000   0.20000   0.40000   |    0.15450   0.30901   0.61801    |
 |   437   -0.10000  -0.20000  -0.40000   |   -0.15450  -0.30901  -0.61801    |
 |   438   -0.10000  -0.20000   0.40000   |   -0.15450  -0.30901   0.61801    |
 |   439    0.10000   0.20000  -0.40000   |    0.15450   0.30901  -0.61801    |
 |   440   -0.10000   0.20000  -0.40000   |   -0.15450   0.30901  -0.61801    |
 |   441    0.10000  -0.20000   0.40000   |    0.15450  -0.30901   0.61801    |
 |   442    0.10000  -0.20000  -0.40000   |    0.15450  -0.30901  -0.61801    |
 |   443   -0.10000   0.20000   0.40000   |   -0.15450   0.30901   0.61801    |
 |   444    0.20000   0.10000  -0.40000   |    0.30901   0.15450  -0.61801    |
 |   445   -0.20000  -0.10000   0.40000   |   -0.30901  -0.15450   0.61801    |
 |   446   -0.20000  -0.10000  -0.40000   |   -0.30901  -0.15450  -0.61801    |
 |   447    0.20000   0.10000   0.40000   |    0.30901   0.15450   0.61801    |
 |   448    0.20000  -0.10000   0.40000   |    0.30901  -0.15450   0.61801    |
 |   449   -0.20000   0.10000  -0.40000   |   -0.30901   0.15450  -0.61801    |
 |   450   -0.20000   0.10000   0.40000   |   -0.30901   0.15450   0.61801    |
 |   451    0.20000  -0.10000  -0.40000   |    0.30901  -0.15450  -0.61801    |
 |   452    0.40000  -0.20000   0.10000   |    0.61801  -0.30901   0.15450    |
 |   453   -0.40000   0.20000  -0.10000   |   -0.61801   0.30901  -0.15450    |
 |   454   -0.40000  -0.20000  -0.10000   |   -0.61801  -0.30901  -0.15450    |
 |   455    0.40000   0.20000   0.10000   |    0.61801   0.30901   0.15450    |
 |   456    0.40000   0.20000  -0.10000   |    0.61801   0.30901  -0.15450    |
 |   457   -0.40000  -0.20000   0.10000   |   -0.61801  -0.30901   0.15450    |
 |   458   -0.40000   0.20000   0.10000   |   -0.61801   0.30901   0.15450    |
 |   459    0.40000  -0.20000  -0.10000   |    0.61801  -0.30901  -0.15450    |
 |   460   -0.10000   0.40000   0.20000   |   -0.15450   0.61801   0.30901    |
 |   461    0.10000  -0.40000  -0.20000   |    0.15450  -0.61801  -0.30901    |
 |   462   -0.10000  -0.40000  -0.20000   |   -0.15450  -0.61801  -0.30901    |
 |   463    0.10000   0.40000   0.20000   |    0.15450   0.61801   0.30901    |
 |   464    0.10000   0.40000  -0.20000   |    0.15450   0.61801  -0.30901    |
 |   465   -0.10000  -0.40000   0.20000   |   -0.15450  -0.61801   0.30901    |
 |   466    0.10000  -0.40000   0.20000   |    0.15450  -0.61801   0.30901    |
 |   467   -0.10000   0.40000  -0.20000   |   -0.15450   0.61801  -0.30901    |
 |   468    0.20000   0.40000   0.10000   |    0.30901   0.61801   0.15450    |
 |   469   -0.20000  -0.40000  -0.10000   |   -0.30901  -0.61801  -0.15450    |
 |   470   -0.20000   0.40000  -0.10000   |   -0.30901   0.61801  -0.15450    |
 |   471    0.20000  -0.40000   0.10000   |    0.30901  -0.61801   0.15450    |
 |   472    0.20000  -0.40000  -0.10000   |    0.30901  -0.61801  -0.15450    |
 |   473   -0.20000   0.40000   0.10000   |   -0.30901   0.61801   0.15450    |
 |   474   -0.20000  -0.40000   0.10000   |   -0.30901  -0.61801   0.15450    |
 |   475    0.20000   0.40000  -0.10000   |    0.30901   0.61801  -0.15450    |
 |   476    0.40000   0.10000   0.20000   |    0.61801   0.15450   0.30901    |
 |   477   -0.40000  -0.10000  -0.20000   |   -0.61801  -0.15450  -0.30901    |
 |   478    0.40000  -0.10000  -0.20000   |    0.61801  -0.15450  -0.30901    |
 |   479   -0.40000   0.10000   0.20000   |   -0.61801   0.15450   0.30901    |
 |   480   -0.40000  -0.10000   0.20000   |   -0.61801  -0.15450   0.30901    |
 |   481    0.40000   0.10000  -0.20000   |    0.61801   0.15450  -0.30901    |
 |   482   -0.40000   0.10000  -0.20000   |   -0.61801   0.15450  -0.30901    |
 |   483    0.40000  -0.10000   0.20000   |    0.61801  -0.15450   0.30901    |
 |   484    0.10000   0.20000   0.50000   |    0.15450   0.30901   0.77252    |
 |   485   -0.10000  -0.20000   0.50000   |   -0.15450  -0.30901   0.77252    |
 |   486   -0.10000   0.20000   0.50000   |   -0.15450   0.30901   0.77252    |
 |   487    0.10000  -0.20000   0.50000   |    0.15450  -0.30901   0.77252    |
 |   488    0.20000   0.10000   0.50000   |    0.30901   0.15450   0.77252    |
 |   489   -0.20000  -0.10000   0.50000   |   -0.30901  -0.15450   0.77252    |
 |   490    0.20000  -0.10000   0.50000   |    0.30901  -0.15450   0.77252    |
 |   491   -0.20000   0.10000   0.50000   |   -0.30901   0.15450   0.77252    |
 |   492    0.50000  -0.20000   0.10000   |    0.77252  -0.30901   0.15450    |
 |   493    0.50000   0.20000  -0.10000   |    0.77252   0.30901  -0.15450    |
 |   494    0.50000  -0.20000  -0.10000   |    0.77252  -0.30901  -0.15450    |
 |   495    0.50000   0.20000   0.10000   |    0.77252   0.30901   0.15450    |
 |   496   -0.10000   0.50000   0.20000   |   -0.15450   0.77252   0.30901    |
 |   497    0.10000   0.50000  -0.20000   |    0.15450   0.77252  -0.30901    |
 |   498   -0.10000   0.50000  -0.20000   |   -0.15450   0.77252  -0.30901    |
 |   499    0.10000   0.50000   0.20000   |    0.15450   0.77252   0.30901    |
 |   500    0.20000   0.50000   0.10000   |    0.30901   0.77252   0.15450    |
 |   501   -0.20000   0.50000  -0.10000   |   -0.30901   0.77252  -0.15450    |
 |   502    0.20000   0.50000  -0.10000   |    0.30901   0.77252  -0.15450    |
 |   503   -0.20000   0.50000   0.10000   |   -0.30901   0.77252   0.15450    |
 |   504    0.50000   0.10000   0.20000   |    0.77252   0.15450   0.30901    |
 |   505    0.50000  -0.10000  -0.20000   |    0.77252  -0.15450  -0.30901    |
 |   506    0.50000  -0.10000   0.20000   |    0.77252  -0.15450   0.30901    |
 |   507    0.50000   0.10000  -0.20000   |    0.77252   0.15450  -0.30901    |
 |   508    0.10000   0.30000   0.30000   |    0.15450   0.46351   0.46351    |
 |   509   -0.10000  -0.30000  -0.30000   |   -0.15450  -0.46351  -0.46351    |
 |   510   -0.10000  -0.30000   0.30000   |   -0.15450  -0.46351   0.46351    |
 |   511    0.10000   0.30000  -0.30000   |    0.15450   0.46351  -0.46351    |
 |   512   -0.10000   0.30000  -0.30000   |   -0.15450   0.46351  -0.46351    |
 |   513    0.10000  -0.30000   0.30000   |    0.15450  -0.46351   0.46351    |
 |   514    0.10000  -0.30000  -0.30000   |    0.15450  -0.46351  -0.46351    |
 |   515   -0.10000   0.30000   0.30000   |   -0.15450   0.46351   0.46351    |
 |   516    0.30000   0.10000  -0.30000   |    0.46351   0.15450  -0.46351    |
 |   517   -0.30000  -0.10000   0.30000   |   -0.46351  -0.15450   0.46351    |
 |   518   -0.30000  -0.10000  -0.30000   |   -0.46351  -0.15450  -0.46351    |
 |   519    0.30000   0.10000   0.30000   |    0.46351   0.15450   0.46351    |
 |   520    0.30000  -0.10000   0.30000   |    0.46351  -0.15450   0.46351    |
 |   521   -0.30000   0.10000  -0.30000   |   -0.46351   0.15450  -0.46351    |
 |   522   -0.30000   0.10000   0.30000   |   -0.46351   0.15450   0.46351    |
 |   523    0.30000  -0.10000  -0.30000   |    0.46351  -0.15450  -0.46351    |
 |   524    0.30000  -0.30000   0.10000   |    0.46351  -0.46351   0.15450    |
 |   525   -0.30000   0.30000  -0.10000   |   -0.46351   0.46351  -0.15450    |
 |   526   -0.30000  -0.30000  -0.10000   |   -0.46351  -0.46351  -0.15450    |
 |   527    0.30000   0.30000   0.10000   |    0.46351   0.46351   0.15450    |
 |   528    0.30000   0.30000  -0.10000   |    0.46351   0.46351  -0.15450    |
 |   529   -0.30000  -0.30000   0.10000   |   -0.46351  -0.46351   0.15450    |
 |   530   -0.30000   0.30000   0.10000   |   -0.46351   0.46351   0.15450    |
 |   531    0.30000  -0.30000  -0.10000   |    0.46351  -0.46351  -0.15450    |
 |   532    0.10000   0.30000   0.40000   |    0.15450   0.46351   0.61801    |
 |   533   -0.10000  -0.30000  -0.40000   |   -0.15450  -0.46351  -0.61801    |
 |   534   -0.10000  -0.30000   0.40000   |   -0.15450  -0.46351   0.61801    |
 |   535    0.10000   0.30000  -0.40000   |    0.15450   0.46351  -0.61801    |
 |   536   -0.10000   0.30000  -0.40000   |   -0.15450   0.46351  -0.61801    |
 |   537    0.10000  -0.30000   0.40000   |    0.15450  -0.46351   0.61801    |
 |   538    0.10000  -0.30000  -0.40000   |    0.15450  -0.46351  -0.61801    |
 |   539   -0.10000   0.30000   0.40000   |   -0.15450   0.46351   0.61801    |
 |   540    0.30000   0.10000  -0.40000   |    0.46351   0.15450  -0.61801    |
 |   541   -0.30000  -0.10000   0.40000   |   -0.46351  -0.15450   0.61801    |
 |   542   -0.30000  -0.10000  -0.40000   |   -0.46351  -0.15450  -0.61801    |
 |   543    0.30000   0.10000   0.40000   |    0.46351   0.15450   0.61801    |
 |   544    0.30000  -0.10000   0.40000   |    0.46351  -0.15450   0.61801    |
 |   545   -0.30000   0.10000  -0.40000   |   -0.46351   0.15450  -0.61801    |
 |   546   -0.30000   0.10000   0.40000   |   -0.46351   0.15450   0.61801    |
 |   547    0.30000  -0.10000  -0.40000   |    0.46351  -0.15450  -0.61801    |
 |   548    0.40000  -0.30000   0.10000   |    0.61801  -0.46351   0.15450    |
 |   549   -0.40000   0.30000  -0.10000   |   -0.61801   0.46351  -0.15450    |
 |   550   -0.40000  -0.30000  -0.10000   |   -0.61801  -0.46351  -0.15450    |
 |   551    0.40000   0.30000   0.10000   |    0.61801   0.46351   0.15450    |
 |   552    0.40000   0.30000  -0.10000   |    0.61801   0.46351  -0.15450    |
 |   553   -0.40000  -0.30000   0.10000   |   -0.61801  -0.46351   0.15450    |
 |   554   -0.40000   0.30000   0.10000   |   -0.61801   0.46351   0.15450    |
 |   555    0.40000  -0.30000  -0.10000   |    0.61801  -0.46351  -0.15450    |
 |   556   -0.10000   0.40000   0.30000   |   -0.15450   0.61801   0.46351    |
 |   557    0.10000  -0.40000  -0.30000   |    0.15450  -0.61801  -0.46351    |
 |   558   -0.10000  -0.40000  -0.30000   |   -0.15450  -0.61801  -0.46351    |
 |   559    0.10000   0.40000   0.30000   |    0.15450   0.61801   0.46351    |
 |   560    0.10000   0.40000  -0.30000   |    0.15450   0.61801  -0.46351    |
 |   561   -0.10000  -0.40000   0.30000   |   -0.15450  -0.61801   0.46351    |
 |   562    0.10000  -0.40000   0.30000   |    0.15450  -0.61801   0.46351    |
 |   563   -0.10000   0.40000  -0.30000   |   -0.15450   0.61801  -0.46351    |
 |   564    0.30000   0.40000   0.10000   |    0.46351   0.61801   0.15450    |
 |   565   -0.30000  -0.40000  -0.10000   |   -0.46351  -0.61801  -0.15450    |
 |   566   -0.30000   0.40000  -0.10000   |   -0.46351   0.61801  -0.15450    |
 |   567    0.30000  -0.40000   0.10000   |    0.46351  -0.61801   0.15450    |
 |   568    0.30000  -0.40000  -0.10000   |    0.46351  -0.61801  -0.15450    |
 |   569   -0.30000   0.40000   0.10000   |   -0.46351   0.61801   0.15450    |
 |   570   -0.30000  -0.40000   0.10000   |   -0.46351  -0.61801   0.15450    |
 |   571    0.30000   0.40000  -0.10000   |    0.46351   0.61801  -0.15450    |
 |   572    0.40000   0.10000   0.30000   |    0.61801   0.15450   0.46351    |
 |   573   -0.40000  -0.10000  -0.30000   |   -0.61801  -0.15450  -0.46351    |
 |   574    0.40000  -0.10000  -0.30000   |    0.61801  -0.15450  -0.46351    |
 |   575   -0.40000   0.10000   0.30000   |   -0.61801   0.15450   0.46351    |
 |   576   -0.40000  -0.10000   0.30000   |   -0.61801  -0.15450   0.46351    |
 |   577    0.40000   0.10000  -0.30000   |    0.61801   0.15450  -0.46351    |
 |   578   -0.40000   0.10000  -0.30000   |   -0.61801   0.15450  -0.46351    |
 |   579    0.40000  -0.10000   0.30000   |    0.61801  -0.15450   0.46351    |
 |   580    0.10000   0.30000   0.50000   |    0.15450   0.46351   0.77252    |
 |   581   -0.10000  -0.30000   0.50000   |   -0.15450  -0.46351   0.77252    |
 |   582   -0.10000   0.30000   0.50000   |   -0.15450   0.46351   0.77252    |
 |   583    0.10000  -0.30000   0.50000   |    0.15450  -0.46351   0.77252    |
 |   584    0.30000   0.10000   0.50000   |    0.46351   0.15450   0.77252    |
 |   585   -0.30000  -0.10000   0.50000   |   -0.46351  -0.15450   0.77252    |
 |   586    0.30000  -0.10000   0.50000   |    0.46351  -0.15450   0.77252    |
 |   587   -0.30000   0.10000   0.50000   |   -0.46351   0.15450   0.77252    |
 |   588    0.50000  -0.30000   0.10000   |    0.77252  -0.46351   0.15450    |
 |   589    0.50000   0.30000  -0.10000   |    0.77252   0.46351  -0.15450    |
 |   590    0.50000  -0.30000  -0.10000   |    0.77252  -0.46351  -0.15450    |
 |   591    0.50000   0.30000   0.10000   |    0.77252   0.46351   0.15450    |
 |   592   -0.10000   0.50000   0.30000   |   -0.15450   0.77252   0.46351    |
 |   593    0.10000   0.50000  -0.30000   |    0.15450   0.77252  -0.46351    |
 |   594   -0.10000   0.50000  -0.30000   |   -0.15450   0.77252  -0.46351    |
 |   595    0.10000   0.50000   0.30000   |    0.15450   0.77252   0.46351    |
 |   596    0.30000   0.50000   0.10000   |    0.46351   0.77252   0.15450    |
 |   597   -0.30000   0.50000  -0.10000   |   -0.46351   0.77252  -0.15450    |
 |   598    0.30000   0.50000  -0.10000   |    0.46351   0.77252  -0.15450    |
 |   599   -0.30000   0.50000   0.10000   |   -0.46351   0.77252   0.15450    |
 |   600    0.50000   0.10000   0.30000   |    0.77252   0.15450   0.46351    |
 |   601    0.50000  -0.10000  -0.30000   |    0.77252  -0.15450  -0.46351    |
 |   602    0.50000  -0.10000   0.30000   |    0.77252  -0.15450   0.46351    |
 |   603    0.50000   0.10000  -0.30000   |    0.77252   0.15450  -0.46351    |
 |   604    0.10000   0.40000   0.40000   |    0.15450   0.61801   0.61801    |
 |   605   -0.10000  -0.40000  -0.40000   |   -0.15450  -0.61801  -0.61801    |
 |   606   -0.10000  -0.40000   0.40000   |   -0.15450  -0.61801   0.61801    |
 |   607    0.10000   0.40000  -0.40000   |    0.15450   0.61801  -0.61801    |
 |   608   -0.10000   0.40000  -0.40000   |   -0.15450   0.61801  -0.61801    |
 |   609    0.10000  -0.40000   0.40000   |    0.15450  -0.61801   0.61801    |
 |   610    0.10000  -0.40000  -0.40000   |    0.15450  -0.61801  -0.61801    |
 |   611   -0.10000   0.40000   0.40000   |   -0.15450   0.61801   0.61801    |
 |   612    0.40000   0.10000  -0.40000   |    0.61801   0.15450  -0.61801    |
 |   613   -0.40000  -0.10000   0.40000   |   -0.61801  -0.15450   0.61801    |
 |   614   -0.40000  -0.10000  -0.40000   |   -0.61801  -0.15450  -0.61801    |
 |   615    0.40000   0.10000   0.40000   |    0.61801   0.15450   0.61801    |
 |   616    0.40000  -0.10000   0.40000   |    0.61801  -0.15450   0.61801    |
 |   617   -0.40000   0.10000  -0.40000   |   -0.61801   0.15450  -0.61801    |
 |   618   -0.40000   0.10000   0.40000   |   -0.61801   0.15450   0.61801    |
 |   619    0.40000  -0.10000  -0.40000   |    0.61801  -0.15450  -0.61801    |
 |   620    0.40000  -0.40000   0.10000   |    0.61801  -0.61801   0.15450    |
 |   621   -0.40000   0.40000  -0.10000   |   -0.61801   0.61801  -0.15450    |
 |   622   -0.40000  -0.40000  -0.10000   |   -0.61801  -0.61801  -0.15450    |
 |   623    0.40000   0.40000   0.10000   |    0.61801   0.61801   0.15450    |
 |   624    0.40000   0.40000  -0.10000   |    0.61801   0.61801  -0.15450    |
 |   625   -0.40000  -0.40000   0.10000   |   -0.61801  -0.61801   0.15450    |
 |   626   -0.40000   0.40000   0.10000   |   -0.61801   0.61801   0.15450    |
 |   627    0.40000  -0.40000  -0.10000   |    0.61801  -0.61801  -0.15450    |
 |   628    0.10000   0.40000   0.50000   |    0.15450   0.61801   0.77252    |
 |   629   -0.10000  -0.40000   0.50000   |   -0.15450  -0.61801   0.77252    |
 |   630   -0.10000   0.40000   0.50000   |   -0.15450   0.61801   0.77252    |
 |   631    0.10000  -0.40000   0.50000   |    0.15450  -0.61801   0.77252    |
 |   632    0.40000   0.10000   0.50000   |    0.61801   0.15450   0.77252    |
 |   633   -0.40000  -0.10000   0.50000   |   -0.61801  -0.15450   0.77252    |
 |   634    0.40000  -0.10000   0.50000   |    0.61801  -0.15450   0.77252    |
 |   635   -0.40000   0.10000   0.50000   |   -0.61801   0.15450   0.77252    |
 |   636    0.50000  -0.40000   0.10000   |    0.77252  -0.61801   0.15450    |
 |   637    0.50000   0.40000  -0.10000   |    0.77252   0.61801  -0.15450    |
 |   638    0.50000  -0.40000  -0.10000   |    0.77252  -0.61801  -0.15450    |
 |   639    0.50000   0.40000   0.10000   |    0.77252   0.61801   0.15450    |
 |   640   -0.10000   0.50000   0.40000   |   -0.15450   0.77252   0.61801    |
 |   641    0.10000   0.50000  -0.40000   |    0.15450   0.77252  -0.61801    |
 |   642   -0.10000   0.50000  -0.40000   |   -0.15450   0.77252  -0.61801    |
 |   643    0.10000   0.50000   0.40000   |    0.15450   0.77252   0.61801    |
 |   644    0.40000   0.50000   0.10000   |    0.61801   0.77252   0.15450    |
 |   645   -0.40000   0.50000  -0.10000   |   -0.61801   0.77252  -0.15450    |
 |   646    0.40000   0.50000  -0.10000   |    0.61801   0.77252  -0.15450    |
 |   647   -0.40000   0.50000   0.10000   |   -0.61801   0.77252   0.15450    |
 |   648    0.50000   0.10000   0.40000   |    0.77252   0.15450   0.61801    |
 |   649    0.50000  -0.10000  -0.40000   |    0.77252  -0.15450  -0.61801    |
 |   650    0.50000  -0.10000   0.40000   |    0.77252  -0.15450   0.61801    |
 |   651    0.50000   0.10000  -0.40000   |    0.77252   0.15450  -0.61801    |
 |   652    0.10000   0.50000   0.50000   |    0.15450   0.77252   0.77252    |
 |   653   -0.10000   0.50000   0.50000   |   -0.15450   0.77252   0.77252    |
 |   654    0.50000   0.10000   0.50000   |    0.77252   0.15450   0.77252    |
 |   655    0.50000  -0.10000   0.50000   |    0.77252  -0.15450   0.77252    |
 |   656    0.50000   0.50000   0.10000   |    0.77252   0.77252   0.15450    |
 |   657    0.50000   0.50000  -0.10000   |    0.77252   0.77252  -0.15450    |
 |   658    0.20000   0.20000   0.20000   |    0.30901   0.30901   0.30901    |
 |   659   -0.20000  -0.20000  -0.20000   |   -0.30901  -0.30901  -0.30901    |
 |   660   -0.20000  -0.20000   0.20000   |   -0.30901  -0.30901   0.30901    |
 |   661    0.20000   0.20000  -0.20000   |    0.30901   0.30901  -0.30901    |
 |   662   -0.20000   0.20000  -0.20000   |   -0.30901   0.30901  -0.30901    |
 |   663    0.20000  -0.20000   0.20000   |    0.30901  -0.30901   0.30901    |
 |   664    0.20000  -0.20000  -0.20000   |    0.30901  -0.30901  -0.30901    |
 |   665   -0.20000   0.20000   0.20000   |   -0.30901   0.30901   0.30901    |
 |   666    0.20000   0.20000   0.30000   |    0.30901   0.30901   0.46351    |
 |   667   -0.20000  -0.20000  -0.30000   |   -0.30901  -0.30901  -0.46351    |
 |   668   -0.20000  -0.20000   0.30000   |   -0.30901  -0.30901   0.46351    |
 |   669    0.20000   0.20000  -0.30000   |    0.30901   0.30901  -0.46351    |
 |   670   -0.20000   0.20000  -0.30000   |   -0.30901   0.30901  -0.46351    |
 |   671    0.20000  -0.20000   0.30000   |    0.30901  -0.30901   0.46351    |
 |   672    0.20000  -0.20000  -0.30000   |    0.30901  -0.30901  -0.46351    |
 |   673   -0.20000   0.20000   0.30000   |   -0.30901   0.30901   0.46351    |
 |   674    0.30000  -0.20000   0.20000   |    0.46351  -0.30901   0.30901    |
 |   675   -0.30000   0.20000  -0.20000   |   -0.46351   0.30901  -0.30901    |
 |   676   -0.30000  -0.20000  -0.20000   |   -0.46351  -0.30901  -0.30901    |
 |   677    0.30000   0.20000   0.20000   |    0.46351   0.30901   0.30901    |
 |   678    0.30000   0.20000  -0.20000   |    0.46351   0.30901  -0.30901    |
 |   679   -0.30000  -0.20000   0.20000   |   -0.46351  -0.30901   0.30901    |
 |   680   -0.30000   0.20000   0.20000   |   -0.46351   0.30901   0.30901    |
 |   681    0.30000  -0.20000  -0.20000   |    0.46351  -0.30901  -0.30901    |
 |   682   -0.20000   0.30000   0.20000   |   -0.30901   0.46351   0.30901    |
 |   683    0.20000  -0.30000  -0.20000   |    0.30901  -0.46351  -0.30901    |
 |   684   -0.20000  -0.30000  -0.20000   |   -0.30901  -0.46351  -0.30901    |
 |   685    0.20000   0.30000   0.20000   |    0.30901   0.46351   0.30901    |
 |   686    0.20000   0.30000  -0.20000   |    0.30901   0.46351  -0.30901    |
 |   687   -0.20000  -0.30000   0.20000   |   -0.30901  -0.46351   0.30901    |
 |   688    0.20000  -0.30000   0.20000   |    0.30901  -0.46351   0.30901    |
 |   689   -0.20000   0.30000  -0.20000   |   -0.30901   0.46351  -0.30901    |
 |   690    0.20000   0.20000   0.40000   |    0.30901   0.30901   0.61801    |
 |   691   -0.20000  -0.20000  -0.40000   |   -0.30901  -0.30901  -0.61801    |
 |   692   -0.20000  -0.20000   0.40000   |   -0.30901  -0.30901   0.61801    |
 |   693    0.20000   0.20000  -0.40000   |    0.30901   0.30901  -0.61801    |
 |   694   -0.20000   0.20000  -0.40000   |   -0.30901   0.30901  -0.61801    |
 |   695    0.20000  -0.20000   0.40000   |    0.30901  -0.30901   0.61801    |
 |   696    0.20000  -0.20000  -0.40000   |    0.30901  -0.30901  -0.61801    |
 |   697   -0.20000   0.20000   0.40000   |   -0.30901   0.30901   0.61801    |
 |   698    0.40000  -0.20000   0.20000   |    0.61801  -0.30901   0.30901    |
 |   699   -0.40000   0.20000  -0.20000   |   -0.61801   0.30901  -0.30901    |
 |   700   -0.40000  -0.20000  -0.20000   |   -0.61801  -0.30901  -0.30901    |
 |   701    0.40000   0.20000   0.20000   |    0.61801   0.30901   0.30901    |
 |   702    0.40000   0.20000  -0.20000   |    0.61801   0.30901  -0.30901    |
 |   703   -0.40000  -0.20000   0.20000   |   -0.61801  -0.30901   0.30901    |
 |   704   -0.40000   0.20000   0.20000   |   -0.61801   0.30901   0.30901    |
 |   705    0.40000  -0.20000  -0.20000   |    0.61801  -0.30901  -0.30901    |
 |   706   -0.20000   0.40000   0.20000   |   -0.30901   0.61801   0.30901    |
 |   707    0.20000  -0.40000  -0.20000   |    0.30901  -0.61801  -0.30901    |
 |   708   -0.20000  -0.40000  -0.20000   |   -0.30901  -0.61801  -0.30901    |
 |   709    0.20000   0.40000   0.20000   |    0.30901   0.61801   0.30901    |
 |   710    0.20000   0.40000  -0.20000   |    0.30901   0.61801  -0.30901    |
 |   711   -0.20000  -0.40000   0.20000   |   -0.30901  -0.61801   0.30901    |
 |   712    0.20000  -0.40000   0.20000   |    0.30901  -0.61801   0.30901    |
 |   713   -0.20000   0.40000  -0.20000   |   -0.30901   0.61801  -0.30901    |
 |   714    0.20000   0.20000   0.50000   |    0.30901   0.30901   0.77252    |
 |   715   -0.20000  -0.20000   0.50000   |   -0.30901  -0.30901   0.77252    |
 |   716   -0.20000   0.20000   0.50000   |   -0.30901   0.30901   0.77252    |
 |   717    0.20000  -0.20000   0.50000   |    0.30901  -0.30901   0.77252    |
 |   718    0.50000  -0.20000   0.20000   |    0.77252  -0.30901   0.30901    |
 |   719    0.50000   0.20000  -0.20000   |    0.77252   0.30901  -0.30901    |
 |   720    0.50000  -0.20000  -0.20000   |    0.77252  -0.30901  -0.30901    |
 |   721    0.50000   0.20000   0.20000   |    0.77252   0.30901   0.30901    |
 |   722   -0.20000   0.50000   0.20000   |   -0.30901   0.77252   0.30901    |
 |   723    0.20000   0.50000  -0.20000   |    0.30901   0.77252  -0.30901    |
 |   724   -0.20000   0.50000  -0.20000   |   -0.30901   0.77252  -0.30901    |
 |   725    0.20000   0.50000   0.20000   |    0.30901   0.77252   0.30901    |
 |   726    0.20000   0.30000   0.30000   |    0.30901   0.46351   0.46351    |
 |   727   -0.20000  -0.30000  -0.30000   |   -0.30901  -0.46351  -0.46351    |
 |   728   -0.20000  -0.30000   0.30000   |   -0.30901  -0.46351   0.46351    |
 |   729    0.20000   0.30000  -0.30000   |    0.30901   0.46351  -0.46351    |
 |   730   -0.20000   0.30000  -0.30000   |   -0.30901   0.46351  -0.46351    |
 |   731    0.20000  -0.30000   0.30000   |    0.30901  -0.46351   0.46351    |
 |   732    0.20000  -0.30000  -0.30000   |    0.30901  -0.46351  -0.46351    |
 |   733   -0.20000   0.30000   0.30000   |   -0.30901   0.46351   0.46351    |
 |   734    0.30000   0.20000  -0.30000   |    0.46351   0.30901  -0.46351    |
 |   735   -0.30000  -0.20000   0.30000   |   -0.46351  -0.30901   0.46351    |
 |   736   -0.30000  -0.20000  -0.30000   |   -0.46351  -0.30901  -0.46351    |
 |   737    0.30000   0.20000   0.30000   |    0.46351   0.30901   0.46351    |
 |   738    0.30000  -0.20000   0.30000   |    0.46351  -0.30901   0.46351    |
 |   739   -0.30000   0.20000  -0.30000   |   -0.46351   0.30901  -0.46351    |
 |   740   -0.30000   0.20000   0.30000   |   -0.46351   0.30901   0.46351    |
 |   741    0.30000  -0.20000  -0.30000   |    0.46351  -0.30901  -0.46351    |
 |   742    0.30000  -0.30000   0.20000   |    0.46351  -0.46351   0.30901    |
 |   743   -0.30000   0.30000  -0.20000   |   -0.46351   0.46351  -0.30901    |
 |   744   -0.30000  -0.30000  -0.20000   |   -0.46351  -0.46351  -0.30901    |
 |   745    0.30000   0.30000   0.20000   |    0.46351   0.46351   0.30901    |
 |   746    0.30000   0.30000  -0.20000   |    0.46351   0.46351  -0.30901    |
 |   747   -0.30000  -0.30000   0.20000   |   -0.46351  -0.46351   0.30901    |
 |   748   -0.30000   0.30000   0.20000   |   -0.46351   0.46351   0.30901    |
 |   749    0.30000  -0.30000  -0.20000   |    0.46351  -0.46351  -0.30901    |
 |   750    0.20000   0.30000   0.40000   |    0.30901   0.46351   0.61801    |
 |   751   -0.20000  -0.30000  -0.40000   |   -0.30901  -0.46351  -0.61801    |
 |   752   -0.20000  -0.30000   0.40000   |   -0.30901  -0.46351   0.61801    |
 |   753    0.20000   0.30000  -0.40000   |    0.30901   0.46351  -0.61801    |
 |   754   -0.20000   0.30000  -0.40000   |   -0.30901   0.46351  -0.61801    |
 |   755    0.20000  -0.30000   0.40000   |    0.30901  -0.46351   0.61801    |
 |   756    0.20000  -0.30000  -0.40000   |    0.30901  -0.46351  -0.61801    |
 |   757   -0.20000   0.30000   0.40000   |   -0.30901   0.46351   0.61801    |
 |   758    0.30000   0.20000  -0.40000   |    0.46351   0.30901  -0.61801    |
 |   759   -0.30000  -0.20000   0.40000   |   -0.46351  -0.30901   0.61801    |
 |   760   -0.30000  -0.20000  -0.40000   |   -0.46351  -0.30901  -0.61801    |
 |   761    0.30000   0.20000   0.40000   |    0.46351   0.30901   0.61801    |
 |   762    0.30000  -0.20000   0.40000   |    0.46351  -0.30901   0.61801    |
 |   763   -0.30000   0.20000  -0.40000   |   -0.46351   0.30901  -0.61801    |
 |   764   -0.30000   0.20000   0.40000   |   -0.46351   0.30901   0.61801    |
 |   765    0.30000  -0.20000  -0.40000   |    0.46351  -0.30901  -0.61801    |
 |   766    0.40000  -0.30000   0.20000   |    0.61801  -0.46351   0.30901    |
 |   767   -0.40000   0.30000  -0.20000   |   -0.61801   0.46351  -0.30901    |
 |   768   -0.40000  -0.30000  -0.20000   |   -0.61801  -0.46351  -0.30901    |
 |   769    0.40000   0.30000   0.20000   |    0.61801   0.46351   0.30901    |
 |   770    0.40000   0.30000  -0.20000   |    0.61801   0.46351  -0.30901    |
 |   771   -0.40000  -0.30000   0.20000   |   -0.61801  -0.46351   0.30901    |
 |   772   -0.40000   0.30000   0.20000   |   -0.61801   0.46351   0.30901    |
 |   773    0.40000  -0.30000  -0.20000   |    0.61801  -0.46351  -0.30901    |
 |   774   -0.20000   0.40000   0.30000   |   -0.30901   0.61801   0.46351    |
 |   775    0.20000  -0.40000  -0.30000   |    0.30901  -0.61801  -0.46351    |
 |   776   -0.20000  -0.40000  -0.30000   |   -0.30901  -0.61801  -0.46351    |
 |   777    0.20000   0.40000   0.30000   |    0.30901   0.61801   0.46351    |
 |   778    0.20000   0.40000  -0.30000   |    0.30901   0.61801  -0.46351    |
 |   779   -0.20000  -0.40000   0.30000   |   -0.30901  -0.61801   0.46351    |
 |   780    0.20000  -0.40000   0.30000   |    0.30901  -0.61801   0.46351    |
 |   781   -0.20000   0.40000  -0.30000   |   -0.30901   0.61801  -0.46351    |
 |   782    0.30000   0.40000   0.20000   |    0.46351   0.61801   0.30901    |
 |   783   -0.30000  -0.40000  -0.20000   |   -0.46351  -0.61801  -0.30901    |
 |   784   -0.30000   0.40000  -0.20000   |   -0.46351   0.61801  -0.30901    |
 |   785    0.30000  -0.40000   0.20000   |    0.46351  -0.61801   0.30901    |
 |   786    0.30000  -0.40000  -0.20000   |    0.46351  -0.61801  -0.30901    |
 |   787   -0.30000   0.40000   0.20000   |   -0.46351   0.61801   0.30901    |
 |   788   -0.30000  -0.40000   0.20000   |   -0.46351  -0.61801   0.30901    |
 |   789    0.30000   0.40000  -0.20000   |    0.46351   0.61801  -0.30901    |
 |   790    0.40000   0.20000   0.30000   |    0.61801   0.30901   0.46351    |
 |   791   -0.40000  -0.20000  -0.30000   |   -0.61801  -0.30901  -0.46351    |
 |   792    0.40000  -0.20000  -0.30000   |    0.61801  -0.30901  -0.46351    |
 |   793   -0.40000   0.20000   0.30000   |   -0.61801   0.30901   0.46351    |
 |   794   -0.40000  -0.20000   0.30000   |   -0.61801  -0.30901   0.46351    |
 |   795    0.40000   0.20000  -0.30000   |    0.61801   0.30901  -0.46351    |
 |   796   -0.40000   0.20000  -0.30000   |   -0.61801   0.30901  -0.46351    |
 |   797    0.40000  -0.20000   0.30000   |    0.61801  -0.30901   0.46351    |
 |   798    0.20000   0.30000   0.50000   |    0.30901   0.46351   0.77252    |
 |   799   -0.20000  -0.30000   0.50000   |   -0.30901  -0.46351   0.77252    |
 |   800   -0.20000   0.30000   0.50000   |   -0.30901   0.46351   0.77252    |
 |   801    0.20000  -0.30000   0.50000   |    0.30901  -0.46351   0.77252    |
 |   802    0.30000   0.20000   0.50000   |    0.46351   0.30901   0.77252    |
 |   803   -0.30000  -0.20000   0.50000   |   -0.46351  -0.30901   0.77252    |
 |   804    0.30000  -0.20000   0.50000   |    0.46351  -0.30901   0.77252    |
 |   805   -0.30000   0.20000   0.50000   |   -0.46351   0.30901   0.77252    |
 |   806    0.50000  -0.30000   0.20000   |    0.77252  -0.46351   0.30901    |
 |   807    0.50000   0.30000  -0.20000   |    0.77252   0.46351  -0.30901    |
 |   808    0.50000  -0.30000  -0.20000   |    0.77252  -0.46351  -0.30901    |
 |   809    0.50000   0.30000   0.20000   |    0.77252   0.46351   0.30901    |
 |   810   -0.20000   0.50000   0.30000   |   -0.30901   0.77252   0.46351    |
 |   811    0.20000   0.50000  -0.30000   |    0.30901   0.77252  -0.46351    |
 |   812   -0.20000   0.50000  -0.30000   |   -0.30901   0.77252  -0.46351    |
 |   813    0.20000   0.50000   0.30000   |    0.30901   0.77252   0.46351    |
 |   814    0.30000   0.50000   0.20000   |    0.46351   0.77252   0.30901    |
 |   815   -0.30000   0.50000  -0.20000   |   -0.46351   0.77252  -0.30901    |
 |   816    0.30000   0.50000  -0.20000   |    0.46351   0.77252  -0.30901    |
 |   817   -0.30000   0.50000   0.20000   |   -0.46351   0.77252   0.30901    |
 |   818    0.50000   0.20000   0.30000   |    0.77252   0.30901   0.46351    |
 |   819    0.50000  -0.20000  -0.30000   |    0.77252  -0.30901  -0.46351    |
 |   820    0.50000  -0.20000   0.30000   |    0.77252  -0.30901   0.46351    |
 |   821    0.50000   0.20000  -0.30000   |    0.77252   0.30901  -0.46351    |
 |   822    0.20000   0.40000   0.40000   |    0.30901   0.61801   0.61801    |
 |   823   -0.20000  -0.40000  -0.40000   |   -0.30901  -0.61801  -0.61801    |
 |   824   -0.20000  -0.40000   0.40000   |   -0.30901  -0.61801   0.61801    |
 |   825    0.20000   0.40000  -0.40000   |    0.30901   0.61801  -0.61801    |
 |   826   -0.20000   0.40000  -0.40000   |   -0.30901   0.61801  -0.61801    |
 |   827    0.20000  -0.40000   0.40000   |    0.30901  -0.61801   0.61801    |
 |   828    0.20000  -0.40000  -0.40000   |    0.30901  -0.61801  -0.61801    |
 |   829   -0.20000   0.40000   0.40000   |   -0.30901   0.61801   0.61801    |
 |   830    0.40000   0.20000  -0.40000   |    0.61801   0.30901  -0.61801    |
 |   831   -0.40000  -0.20000   0.40000   |   -0.61801  -0.30901   0.61801    |
 |   832   -0.40000  -0.20000  -0.40000   |   -0.61801  -0.30901  -0.61801    |
 |   833    0.40000   0.20000   0.40000   |    0.61801   0.30901   0.61801    |
 |   834    0.40000  -0.20000   0.40000   |    0.61801  -0.30901   0.61801    |
 |   835   -0.40000   0.20000  -0.40000   |   -0.61801   0.30901  -0.61801    |
 |   836   -0.40000   0.20000   0.40000   |   -0.61801   0.30901   0.61801    |
 |   837    0.40000  -0.20000  -0.40000   |    0.61801  -0.30901  -0.61801    |
 |   838    0.40000  -0.40000   0.20000   |    0.61801  -0.61801   0.30901    |
 |   839   -0.40000   0.40000  -0.20000   |   -0.61801   0.61801  -0.30901    |
 |   840   -0.40000  -0.40000  -0.20000   |   -0.61801  -0.61801  -0.30901    |
 |   841    0.40000   0.40000   0.20000   |    0.61801   0.61801   0.30901    |
 |   842    0.40000   0.40000  -0.20000   |    0.61801   0.61801  -0.30901    |
 |   843   -0.40000  -0.40000   0.20000   |   -0.61801  -0.61801   0.30901    |
 |   844   -0.40000   0.40000   0.20000   |   -0.61801   0.61801   0.30901    |
 |   845    0.40000  -0.40000  -0.20000   |    0.61801  -0.61801  -0.30901    |
 |   846    0.20000   0.40000   0.50000   |    0.30901   0.61801   0.77252    |
 |   847   -0.20000  -0.40000   0.50000   |   -0.30901  -0.61801   0.77252    |
 |   848   -0.20000   0.40000   0.50000   |   -0.30901   0.61801   0.77252    |
 |   849    0.20000  -0.40000   0.50000   |    0.30901  -0.61801   0.77252    |
 |   850    0.40000   0.20000   0.50000   |    0.61801   0.30901   0.77252    |
 |   851   -0.40000  -0.20000   0.50000   |   -0.61801  -0.30901   0.77252    |
 |   852    0.40000  -0.20000   0.50000   |    0.61801  -0.30901   0.77252    |
 |   853   -0.40000   0.20000   0.50000   |   -0.61801   0.30901   0.77252    |
 |   854    0.50000  -0.40000   0.20000   |    0.77252  -0.61801   0.30901    |
 |   855    0.50000   0.40000  -0.20000   |    0.77252   0.61801  -0.30901    |
 |   856    0.50000  -0.40000  -0.20000   |    0.77252  -0.61801  -0.30901    |
 |   857    0.50000   0.40000   0.20000   |    0.77252   0.61801   0.30901    |
 |   858   -0.20000   0.50000   0.40000   |   -0.30901   0.77252   0.61801    |
 |   859    0.20000   0.50000  -0.40000   |    0.30901   0.77252  -0.61801    |
 |   860   -0.20000   0.50000  -0.40000   |   -0.30901   0.77252  -0.61801    |
 |   861    0.20000   0.50000   0.40000   |    0.30901   0.77252   0.61801    |
 |   862    0.40000   0.50000   0.20000   |    0.61801   0.77252   0.30901    |
 |   863   -0.40000   0.50000  -0.20000   |   -0.61801   0.77252  -0.30901    |
 |   864    0.40000   0.50000  -0.20000   |    0.61801   0.77252  -0.30901    |
 |   865   -0.40000   0.50000   0.20000   |   -0.61801   0.77252   0.30901    |
 |   866    0.50000   0.20000   0.40000   |    0.77252   0.30901   0.61801    |
 |   867    0.50000  -0.20000  -0.40000   |    0.77252  -0.30901  -0.61801    |
 |   868    0.50000  -0.20000   0.40000   |    0.77252  -0.30901   0.61801    |
 |   869    0.50000   0.20000  -0.40000   |    0.77252   0.30901  -0.61801    |
 |   870    0.20000   0.50000   0.50000   |    0.30901   0.77252   0.77252    |
 |   871   -0.20000   0.50000   0.50000   |   -0.30901   0.77252   0.77252    |
 |   872    0.50000   0.20000   0.50000   |    0.77252   0.30901   0.77252    |
 |   873    0.50000  -0.20000   0.50000   |    0.77252  -0.30901   0.77252    |
 |   874    0.50000   0.50000   0.20000   |    0.77252   0.77252   0.30901    |
 |   875    0.50000   0.50000  -0.20000   |    0.77252   0.77252  -0.30901    |
 |   876    0.30000   0.30000   0.30000   |    0.46351   0.46351   0.46351    |
 |   877   -0.30000  -0.30000  -0.30000   |   -0.46351  -0.46351  -0.46351    |
 |   878   -0.30000  -0.30000   0.30000   |   -0.46351  -0.46351   0.46351    |
 |   879    0.30000   0.30000  -0.30000   |    0.46351   0.46351  -0.46351    |
 |   880   -0.30000   0.30000  -0.30000   |   -0.46351   0.46351  -0.46351    |
 |   881    0.30000  -0.30000   0.30000   |    0.46351  -0.46351   0.46351    |
 |   882    0.30000  -0.30000  -0.30000   |    0.46351  -0.46351  -0.46351    |
 |   883   -0.30000   0.30000   0.30000   |   -0.46351   0.46351   0.46351    |
 |   884    0.30000   0.30000   0.40000   |    0.46351   0.46351   0.61801    |
 |   885   -0.30000  -0.30000  -0.40000   |   -0.46351  -0.46351  -0.61801    |
 |   886   -0.30000  -0.30000   0.40000   |   -0.46351  -0.46351   0.61801    |
 |   887    0.30000   0.30000  -0.40000   |    0.46351   0.46351  -0.61801    |
 |   888   -0.30000   0.30000  -0.40000   |   -0.46351   0.46351  -0.61801    |
 |   889    0.30000  -0.30000   0.40000   |    0.46351  -0.46351   0.61801    |
 |   890    0.30000  -0.30000  -0.40000   |    0.46351  -0.46351  -0.61801    |
 |   891   -0.30000   0.30000   0.40000   |   -0.46351   0.46351   0.61801    |
 |   892    0.40000  -0.30000   0.30000   |    0.61801  -0.46351   0.46351    |
 |   893   -0.40000   0.30000  -0.30000   |   -0.61801   0.46351  -0.46351    |
 |   894   -0.40000  -0.30000  -0.30000   |   -0.61801  -0.46351  -0.46351    |
 |   895    0.40000   0.30000   0.30000   |    0.61801   0.46351   0.46351    |
 |   896    0.40000   0.30000  -0.30000   |    0.61801   0.46351  -0.46351    |
 |   897   -0.40000  -0.30000   0.30000   |   -0.61801  -0.46351   0.46351    |
 |   898   -0.40000   0.30000   0.30000   |   -0.61801   0.46351   0.46351    |
 |   899    0.40000  -0.30000  -0.30000   |    0.61801  -0.46351  -0.46351    |
[...]
 
      3    -0.474E-05     0.0015982195        6.8233379320       0.24  <-- CONV
        O_D=      0.0000000 O_OD=      0.0672493 O_TOT=      6.8233379 <-- SPRD
 Delta: O_D=  0.1225827E-19 O_OD= -0.4741899E-05 O_TOT= -0.4741899E-05 <-- DLTA
 ------------------------------------------------------------------------------
 Cycle:      4
  WF centre and spread    1  (  2.033352,  2.033352,  2.033352 )     1.62112060
  WF centre and spread    2  (  2.033352,  2.033352,  2.033352 )     1.19367453
  WF centre and spread    3  (  2.033352,  2.033352,  2.033352 )     1.19367453
  WF centre and spread    4  (  2.033352,  2.033352,  2.033352 )     1.62119594
  WF centre and spread    5  (  2.033352,  2.033352,  2.033352 )     1.19367048
  Sum of centres and spreads ( 10.166760, 10.166760, 10.166760 )     6.82333609
 
      4    -0.184E-05     0.0009478538        6.8233360890       0.27  <-- CONV
        O_D=      0.0000000 O_OD=      0.0672475 O_TOT=      6.8233361 <-- SPRD
 Delta: O_D=  0.5806177E-19 O_OD= -0.1843006E-05 O_TOT= -0.1843006E-05 <-- DLTA
 ------------------------------------------------------------------------------
 Cycle:      5
  WF centre and spread    1  (  2.033352,  2.033352,  2.033352 )     1.62110467
  WF centre and spread    2  (  2.033352,  2.033352,  2.033352 )     1.19367336
  WF centre and spread    3  (  2.033352,  2.033352,  2.033352 )     1.19367336
  WF centre and spread    4  (  2.033352,  2.033352,  2.033352 )     1.62121465
  WF centre and spread    5  (  2.033352,  2.033352,  2.033352 )     1.19366919
  Sum of centres and spreads ( 10.166760, 10.166760, 10.166760 )     6.82333522
 
      5    -0.872E-06     0.0007199005        6.8233352170       0.29  <-- CONV
        O_D=      0.0000000 O_OD=      0.0672466 O_TOT=      6.8233352 <-- SPRD
 Delta: O_D=  0.7260734E-19 O_OD= -0.8720087E-06 O_TOT= -0.8720087E-06 <-- DLTA
 ------------------------------------------------------------------------------
 Cycle:      6
  WF centre and spread    1  (  2.033352,  2.033352,  2.033352 )     1.62109532
  WF centre and spread    2  (  2.033352,  2.033352,  2.033352 )     1.19367271
  WF centre and spread    3  (  2.033352,  2.033352,  2.033352 )     1.19367271
  WF centre and spread    4  (  2.033352,  2.033352,  2.033352 )     1.62122563
  WF centre and spread    5  (  2.033352,  2.033352,  2.033352 )     1.19366851
  Sum of centres and spreads ( 10.166760, 10.166760, 10.166760 )     6.82333489
 
      6    -0.330E-06     0.0005192277        6.8233348866       0.31  <-- CONV
        O_D=      0.0000000 O_OD=      0.0672463 O_TOT=      6.8233349 <-- SPRD
 Delta: O_D= -0.7872692E-19 O_OD= -0.3304540E-06 O_TOT= -0.3304540E-06 <-- DLTA
 ------------------------------------------------------------------------------
 Cycle:      7
  WF centre and spread    1  (  2.033352,  2.033352,  2.033352 )     1.62109306
  WF centre and spread    2  (  2.033352,  2.033352,  2.033352 )     1.19367259
  WF centre and spread    3  (  2.033352,  2.033352,  2.033352 )     1.19367259
  WF centre and spread    4  (  2.033352,  2.033352,  2.033352 )     1.62122815
  WF centre and spread    5  (  2.033352,  2.033352,  2.033352 )     1.19366841
  Sum of centres and spreads ( 10.166760, 10.166760, 10.166760 )     6.82333479
 
      7    -0.922E-07     0.0003043099        6.8233347943       0.34  <-- CONV
        O_D=      0.0000000 O_OD=      0.0672462 O_TOT=      6.8233348 <-- SPRD
 Delta: O_D= -0.1079610E-19 O_OD= -0.9222273E-07 O_TOT= -0.9222273E-07 <-- DLTA
 ------------------------------------------------------------------------------
 Cycle:      8
  WF centre and spread    1  (  2.033352,  2.033352,  2.033352 )     1.62108553
  WF centre and spread    2  (  2.033352,  2.033352,  2.033352 )     1.19367224
  WF centre and spread    3  (  2.033352,  2.033352,  2.033352 )     1.19367224
  WF centre and spread    4  (  2.033352,  2.033352,  2.033352 )     1.62123653
  WF centre and spread    5  (  2.033352,  2.033352,  2.033352 )     1.19366815
  Sum of centres and spreads ( 10.166760, 10.166760, 10.166760 )     6.82333469
 
      8    -0.996E-07     0.0002134998        6.8233346947       0.36  <-- CONV
        O_D=      0.0000000 O_OD=      0.0672461 O_TOT=      6.8233347 <-- SPRD
 Delta: O_D=  0.1397417E-19 O_OD= -0.9959382E-07 O_TOT= -0.9959382E-07 <-- DLTA
 ------------------------------------------------------------------------------
 Cycle:      9
  WF centre and spread    1  (  2.033352,  2.033352,  2.033352 )     1.62107471
  WF centre and spread    2  (  2.033352,  2.033352,  2.033352 )     1.19367190
  WF centre and spread    3  (  2.033352,  2.033352,  2.033352 )     1.19367190
  WF centre and spread    4  (  2.033352,  2.033352,  2.033352 )     1.62124817
  WF centre and spread    5  (  2.033352,  2.033352,  2.033352 )     1.19366793
  Sum of centres and spreads ( 10.166760, 10.166760, 10.166760 )     6.82333460
 
      9    -0.942E-07     0.0002255798        6.8233346005       0.39  <-- CONV
        O_D=      0.0000000 O_OD=      0.0672460 O_TOT=      6.8233346 <-- SPRD
 Delta: O_D=  0.7912053E-20 O_OD= -0.9422244E-07 O_TOT= -0.9422244E-07 <-- DLTA
 ------------------------------------------------------------------------------
 Cycle:     10
  WF centre and spread    1  (  2.033352,  2.033352,  2.033352 )     1.62106780
  WF centre and spread    2  (  2.033352,  2.033352,  2.033352 )     1.19367191
  WF centre and spread    3  (  2.033352,  2.033352,  2.033352 )     1.19367191
  WF centre and spread    4  (  2.033352,  2.033352,  2.033352 )     1.62125493
  WF centre and spread    5  (  2.033352,  2.033352,  2.033352 )     1.19366800
  Sum of centres and spreads ( 10.166760, 10.166760, 10.166760 )     6.82333456
 
     10    -0.395E-07     0.0001561291        6.8233345610       0.41  <-- CONV
        O_D=      0.0000000 O_OD=      0.0672459 O_TOT=      6.8233346 <-- SPRD
 Delta: O_D=  0.8594839E-19 O_OD= -0.3950661E-07 O_TOT= -0.3950661E-07 <-- DLTA
 ------------------------------------------------------------------------------
 Cycle:     11
  WF centre and spread    1  (  2.033352,  2.033352,  2.033352 )     1.62106182
  WF centre and spread    2  (  2.033352,  2.033352,  2.033352 )     1.19367211
  WF centre and spread    3  (  2.033352,  2.033352,  2.033352 )     1.19367211
  WF centre and spread    4  (  2.033352,  2.033352,  2.033352 )     1.62126025
  WF centre and spread    5  (  2.033352,  2.033352,  2.033352 )     1.19366824
  Sum of centres and spreads ( 10.166760, 10.166760, 10.166760 )     6.82333454
 
     11    -0.215E-07     0.0001111720        6.8233345395       0.43  <-- CONV
        O_D=      0.0000000 O_OD=      0.0672459 O_TOT=      6.8233345 <-- SPRD
 Delta: O_D=  0.2585985E-18 O_OD= -0.2154731E-07 O_TOT= -0.2154731E-07 <-- DLTA
 ------------------------------------------------------------------------------
 Cycle:     12
  WF centre and spread    1  (  2.033352,  2.033352,  2.033352 )     1.62105577
  WF centre and spread    2  (  2.033352,  2.033352,  2.033352 )     1.19367235
  WF centre and spread    3  (  2.033352,  2.033352,  2.033352 )     1.19367235
  WF centre and spread    4  (  2.033352,  2.033352,  2.033352 )     1.62126552
  WF centre and spread    5  (  2.033352,  2.033352,  2.033352 )     1.19366853
  Sum of centres and spreads ( 10.166760, 10.166760, 10.166760 )     6.82333452
 
     12    -0.163E-07     0.0001059959        6.8233345231       0.46  <-- CONV
        O_D=      0.0000000 O_OD=      0.0672459 O_TOT=      6.8233345 <-- SPRD
 Delta: O_D= -0.9857306E-19 O_OD= -0.1632400E-07 O_TOT= -0.1632400E-07 <-- DLTA
 ------------------------------------------------------------------------------
 Cycle:     13
  WF centre and spread    1  (  2.033352,  2.033352,  2.033352 )     1.62105560
  WF centre and spread    2  (  2.033352,  2.033352,  2.033352 )     1.19367233
  WF centre and spread    3  (  2.033352,  2.033352,  2.033352 )     1.19367233
  WF centre and spread    4  (  2.033352,  2.033352,  2.033352 )     1.62126574
  WF centre and spread    5  (  2.033352,  2.033352,  2.033352 )     1.19366851
  Sum of centres and spreads ( 10.166760, 10.166760, 10.166760 )     6.82333452
 
     13    -0.451E-08     0.0000661310        6.8233345186       0.48  <-- CONV
        O_D=      0.0000000 O_OD=      0.0672459 O_TOT=      6.8233345 <-- SPRD
 Delta: O_D=  0.3796961E-19 O_OD= -0.4505008E-08 O_TOT= -0.4505008E-08 <-- DLTA
 ------------------------------------------------------------------------------
 Cycle:     14
  WF centre and spread    1  (  2.033352,  2.033352,  2.033352 )     1.62105540
  WF centre and spread    2  (  2.033352,  2.033352,  2.033352 )     1.19367231
  WF centre and spread    3  (  2.033352,  2.033352,  2.033352 )     1.19367231
  WF centre and spread    4  (  2.033352,  2.033352,  2.033352 )     1.62126600
  WF centre and spread    5  (  2.033352,  2.033352,  2.033352 )     1.19366849
  Sum of centres and spreads ( 10.166760, 10.166760, 10.166760 )     6.82333452
 
     14    -0.167E-08     0.0000381583        6.8233345170       0.51  <-- CONV
        O_D=      0.0000000 O_OD=      0.0672459 O_TOT=      6.8233345 <-- SPRD
 Delta: O_D= -0.3110828E-18 O_OD= -0.1672901E-08 O_TOT= -0.1672901E-08 <-- DLTA
 ------------------------------------------------------------------------------
 Cycle:     15
  WF centre and spread    1  (  2.033352,  2.033352,  2.033352 )     1.62105525
  WF centre and spread    2  (  2.033352,  2.033352,  2.033352 )     1.19367230
  WF centre and spread    3  (  2.033352,  2.033352,  2.033352 )     1.19367230
  WF centre and spread    4  (  2.033352,  2.033352,  2.033352 )     1.62126618
  WF centre and spread    5  (  2.033352,  2.033352,  2.033352 )     1.19366848
  Sum of centres and spreads ( 10.166760, 10.166760, 10.166760 )     6.82333452
 
     15    -0.542E-09     0.0000196385        6.8233345164       0.53  <-- CONV
        O_D=      0.0000000 O_OD=      0.0672459 O_TOT=      6.8233345 <-- SPRD
 Delta: O_D= -0.5314492E-19 O_OD= -0.5419460E-09 O_TOT= -0.5419460E-09 <-- DLTA
 ------------------------------------------------------------------------------
 Cycle:     16
  WF centre and spread    1  (  2.033352,  2.033352,  2.033352 )     1.62105521
  WF centre and spread    2  (  2.033352,  2.033352,  2.033352 )     1.19367230
  WF centre and spread    3  (  2.033352,  2.033352,  2.033352 )     1.19367230
  WF centre and spread    4  (  2.033352,  2.033352,  2.033352 )     1.62126624
  WF centre and spread    5  (  2.033352,  2.033352,  2.033352 )     1.19366848
  Sum of centres and spreads ( 10.166760, 10.166760, 10.166760 )     6.82333452
 
     16    -0.136E-09     0.0000135829        6.8233345163       0.55  <-- CONV
        O_D=      0.0000000 O_OD=      0.0672459 O_TOT=      6.8233345 <-- SPRD
 Delta: O_D= -0.1382697E-20 O_OD= -0.1355534E-09 O_TOT= -0.1355529E-09 <-- DLTA
 ------------------------------------------------------------------------------
 Cycle:     17
  WF centre and spread    1  (  2.033352,  2.033352,  2.033352 )     1.62105521
  WF centre and spread    2  (  2.033352,  2.033352,  2.033352 )     1.19367230
  WF centre and spread    3  (  2.033352,  2.033352,  2.033352 )     1.19367230
  WF centre and spread    4  (  2.033352,  2.033352,  2.033352 )     1.62126624
  WF centre and spread    5  (  2.033352,  2.033352,  2.033352 )     1.19366848
  Sum of centres and spreads ( 10.166760, 10.166760, 10.166760 )     6.82333452
 
     17    -0.130E-11     0.0000116855        6.8233345163       0.57  <-- CONV
        O_D=      0.0000000 O_OD=      0.0672459 O_TOT=      6.8233345 <-- SPRD
 Delta: O_D=  0.3643614E-23 O_OD= -0.1298170E-11 O_TOT= -0.1298517E-11 <-- DLTA
 ------------------------------------------------------------------------------
 Cycle:     18
  WF centre and spread    1  (  2.033352,  2.033352,  2.033352 )     1.62105503
  WF centre and spread    2  (  2.033352,  2.033352,  2.033352 )     1.19367229
  WF centre and spread    3  (  2.033352,  2.033352,  2.033352 )     1.19367229
  WF centre and spread    4  (  2.033352,  2.033352,  2.033352 )     1.62126644
  WF centre and spread    5  (  2.033352,  2.033352,  2.033352 )     1.19366847
  Sum of centres and spreads ( 10.166760, 10.166760, 10.166760 )     6.82333452
 
     18    -0.315E-09     0.0000116667        6.8233345160       0.59  <-- CONV
        O_D=      0.0000000 O_OD=      0.0672459 O_TOT=      6.8233345 <-- SPRD
 Delta: O_D=  0.3520732E-20 O_OD= -0.3150565E-09 O_TOT= -0.3150564E-09 <-- DLTA
 ------------------------------------------------------------------------------
 Cycle:     19
  WF centre and spread    1  (  2.033352,  2.033352,  2.033352 )     1.62105503
  WF centre and spread    2  (  2.033352,  2.033352,  2.033352 )     1.19367229
  WF centre and spread    3  (  2.033352,  2.033352,  2.033352 )     1.19367229
  WF centre and spread    4  (  2.033352,  2.033352,  2.033352 )     1.62126644
  WF centre and spread    5  (  2.033352,  2.033352,  2.033352 )     1.19366847
  Sum of centres and spreads ( 10.166760, 10.166760, 10.166760 )     6.82333452
 
     19    -0.333E-12     0.0000091314        6.8233345160       0.61  <-- CONV
        O_D=      0.0000000 O_OD=      0.0672459 O_TOT=      6.8233345 <-- SPRD
 Delta: O_D= -0.2935396E-22 O_OD= -0.3330253E-12 O_TOT= -0.3330669E-12 <-- DLTA
 ------------------------------------------------------------------------------
 Cycle:     20
  WF centre and spread    1  (  2.033352,  2.033352,  2.033352 )     1.62105499
  WF centre and spread    2  (  2.033352,  2.033352,  2.033352 )     1.19367229
  WF centre and spread    3  (  2.033352,  2.033352,  2.033352 )     1.19367229
  WF centre and spread    4  (  2.033352,  2.033352,  2.033352 )     1.62126649
  WF centre and spread    5  (  2.033352,  2.033352,  2.033352 )     1.19366846
  Sum of centres and spreads ( 10.166760, 10.166760, 10.166760 )     6.82333452
 
     20    -0.592E-10     0.0000091196        6.8233345159       0.63  <-- CONV
        O_D=      0.0000000 O_OD=      0.0672459 O_TOT=      6.8233345 <-- SPRD
 Delta: O_D= -0.3559660E-20 O_OD= -0.5915263E-10 O_TOT= -0.5915268E-10 <-- DLTA
 ------------------------------------------------------------------------------
 Cycle:     21
  WF centre and spread    1  (  2.033352,  2.033352,  2.033352 )     1.62105499
  WF centre and spread    2  (  2.033352,  2.033352,  2.033352 )     1.19367229
  WF centre and spread    3  (  2.033352,  2.033352,  2.033352 )     1.19367229
  WF centre and spread    4  (  2.033352,  2.033352,  2.033352 )     1.62126649
  WF centre and spread    5  (  2.033352,  2.033352,  2.033352 )     1.19366846
  Sum of centres and spreads ( 10.166760, 10.166760, 10.166760 )     6.82333452
 
     21    -0.516E-12     0.0000072507        6.8233345159       0.64  <-- CONV
        O_D=      0.0000000 O_OD=      0.0672459 O_TOT=      6.8233345 <-- SPRD
 Delta: O_D= -0.7546519E-23 O_OD= -0.5156708E-12 O_TOT= -0.5160317E-12 <-- DLTA
 ------------------------------------------------------------------------------
 Cycle:     22
  WF centre and spread    1  (  2.033352,  2.033352,  2.033352 )     1.62105499
  WF centre and spread    2  (  2.033352,  2.033352,  2.033352 )     1.19367229
  WF centre and spread    3  (  2.033352,  2.033352,  2.033352 )     1.19367229
  WF centre and spread    4  (  2.033352,  2.033352,  2.033352 )     1.62126649
  WF centre and spread    5  (  2.033352,  2.033352,  2.033352 )     1.19366846
  Sum of centres and spreads ( 10.166760, 10.166760, 10.166760 )     6.82333452
 
     22    -0.722E-12     0.0000072405        6.8233345159       0.66  <-- CONV
        O_D=      0.0000000 O_OD=      0.0672459 O_TOT=      6.8233345 <-- SPRD
 Delta: O_D= -0.8159490E-23 O_OD= -0.7224776E-12 O_TOT= -0.7220891E-12 <-- DLTA
 ------------------------------------------------------------------------------
 Cycle:     23
  WF centre and spread    1  (  2.033352,  2.033352,  2.033352 )     1.62105499
  WF centre and spread    2  (  2.033352,  2.033352,  2.033352 )     1.19367229
  WF centre and spread    3  (  2.033352,  2.033352,  2.033352 )     1.19367229
  WF centre and spread    4  (  2.033352,  2.033352,  2.033352 )     1.62126649
  WF centre and spread    5  (  2.033352,  2.033352,  2.033352 )     1.19366846
  Sum of centres and spreads ( 10.166760, 10.166760, 10.166760 )     6.82333452
 
     23    -0.925E-12     0.0000072273        6.8233345159       0.67  <-- CONV
        O_D=      0.0000000 O_OD=      0.0672459 O_TOT=      6.8233345 <-- SPRD
 Delta: O_D= -0.8637387E-23 O_OD= -0.9253848E-12 O_TOT= -0.9254819E-12 <-- DLTA
 ------------------------------------------------------------------------------
 Cycle:     24
  WF centre and spread    1  (  2.033352,  2.033352,  2.033352 )     1.62105490
  WF centre and spread    2  (  2.033352,  2.033352,  2.033352 )     1.19367228
  WF centre and spread    3  (  2.033352,  2.033352,  2.033352 )     1.19367228
  WF centre and spread    4  (  2.033352,  2.033352,  2.033352 )     1.62126659
  WF centre and spread    5  (  2.033352,  2.033352,  2.033352 )     1.19366846
  Sum of centres and spreads ( 10.166760, 10.166760, 10.166760 )     6.82333452
 
     24    -0.864E-10     0.0000072113        6.8233345158       0.69  <-- CONV
        O_D=      0.0000000 O_OD=      0.0672459 O_TOT=      6.8233345 <-- SPRD
 Delta: O_D=  0.9250845E-21 O_OD= -0.8639452E-10 O_TOT= -0.8639489E-10 <-- DLTA
 ------------------------------------------------------------------------------

             <<<     Delta < 1.000E-09  over 10 iterations     >>>
             <<< Wannierisation convergence criteria satisfied >>>

 Final State
  WF centre and spread    1  (  2.033352,  2.033352,  2.033352 )     1.62105490
  WF centre and spread    2  (  2.033352,  2.033352,  2.033352 )     1.19367228
  WF centre and spread    3  (  2.033352,  2.033352,  2.033352 )     1.19367228
  WF centre and spread    4  (  2.033352,  2.033352,  2.033352 )     1.62126659
  WF centre and spread    5  (  2.033352,  2.033352,  2.033352 )     1.19366846
  Sum of centres and spreads ( 10.166760, 10.166760, 10.166760 )     6.82333452
 
         Spreads (Ang^2)       Omega I      =     6.756088627
        ================       Omega D      =     0.000000000
                               Omega OD     =     0.067245889
    Final Spread (Ang^2)       Omega Total  =     6.823334516
 ------------------------------------------------------------------------------
 Time for wannierise            0.528 (sec)

 Writing checkpoint file kcuf.chk... done

 *---------------------------------------------------------------------------*
 |                               PLOTTING                                    |
 *---------------------------------------------------------------------------*
 
 
 Calculating interpolated band-structure
 
 Time to calculate interpolated band structure       1.259 (sec)
 
 Time for plotting              2.479 (sec)
 Total Execution Time          70.648 (sec)

 *===========================================================================*
 |                             TIMING INFORMATION                            |
 *===========================================================================*
 |    Tag                                                Ncalls      Time (s)|
 |---------------------------------------------------------------------------|
 |kmesh: get                                        :         1         0.426|
 |overlap: allocate                                 :         1         0.000|
 |overlap: read                                     :         1        66.607|
 |dis: main                                         :         1         0.327|
 |wann: main                                        :         1         0.528|
 |plot: main                                        :         1         2.479|
 *---------------------------------------------------------------------------*
 
 All done: wannier90 exiting
