File written on 19Feb2024 at 14:41:16 

calc_only_A  :  F

begin real_lattice
   4.0667041   0.0000000   0.0000000
   0.0000000   4.0667041   0.0000000
   0.0000000   0.0000000   4.0667041
end real_lattice

begin recip_lattice
   1.5450313   0.0000000   0.0000000
   0.0000000   1.5450313   0.0000000
   0.0000000   0.0000000   1.5450313
end recip_lattice

begin kpoints
  1000
    0.00000000    0.00000000    0.00000000
    0.00000000    0.00000000    0.10000000
    0.00000000    0.00000000   -0.10000000
    0.10000000    0.00000000    0.00000000
   -0.10000000    0.00000000    0.00000000
    0.00000000    0.10000000    0.00000000
    0.00000000   -0.10000000    0.00000000
    0.00000000    0.00000000    0.20000000
    0.00000000    0.00000000   -0.20000000
    0.20000000    0.00000000    0.00000000
   -0.20000000    0.00000000    0.00000000
    0.00000000    0.20000000    0.00000000
    0.00000000   -0.20000000    0.00000000
    0.00000000    0.00000000    0.30000000
    0.00000000    0.00000000   -0.30000000
    0.30000000    0.00000000    0.00000000
   -0.30000000    0.00000000    0.00000000
    0.00000000    0.30000000    0.00000000
    0.00000000   -0.30000000    0.00000000
    0.00000000    0.00000000    0.40000000
    0.00000000    0.00000000   -0.40000000
    0.40000000    0.00000000    0.00000000
   -0.40000000    0.00000000    0.00000000
    0.00000000    0.40000000    0.00000000
    0.00000000   -0.40000000    0.00000000
    0.00000000    0.00000000    0.50000000
    0.50000000    0.00000000    0.00000000
    0.00000000    0.50000000    0.00000000
    0.00000000    0.10000000    0.10000000
    0.00000000   -0.10000000   -0.10000000
    0.00000000   -0.10000000    0.10000000
    0.00000000    0.10000000   -0.10000000
    0.10000000    0.00000000   -0.10000000
   -0.10000000    0.00000000    0.10000000
   -0.10000000    0.00000000   -0.10000000
    0.10000000    0.00000000    0.10000000
    0.10000000   -0.10000000    0.00000000
   -0.10000000    0.10000000    0.00000000
   -0.10000000   -0.10000000    0.00000000
    0.10000000    0.10000000    0.00000000
    0.00000000    0.10000000    0.20000000
    0.00000000   -0.10000000   -0.20000000
    0.00000000   -0.10000000    0.20000000
    0.00000000    0.10000000   -0.20000000
    0.10000000    0.00000000   -0.20000000
   -0.10000000    0.00000000    0.20000000
   -0.10000000    0.00000000   -0.20000000
    0.10000000    0.00000000    0.20000000
    0.20000000   -0.10000000    0.00000000
   -0.20000000    0.10000000    0.00000000
   -0.20000000   -0.10000000    0.00000000
    0.20000000    0.10000000    0.00000000
    0.00000000    0.20000000    0.10000000
    0.00000000   -0.20000000   -0.10000000
    0.00000000    0.20000000   -0.10000000
    0.00000000   -0.20000000    0.10000000
    0.10000000    0.20000000    0.00000000
   -0.10000000   -0.20000000    0.00000000
   -0.10000000    0.20000000    0.00000000
    0.10000000   -0.20000000    0.00000000
    0.20000000    0.00000000    0.10000000
   -0.20000000    0.00000000   -0.10000000
    0.20000000    0.00000000   -0.10000000
   -0.20000000    0.00000000    0.10000000
    0.00000000    0.10000000    0.30000000
    0.00000000   -0.10000000   -0.30000000
    0.00000000   -0.10000000    0.30000000
    0.00000000    0.10000000   -0.30000000
    0.10000000    0.00000000   -0.30000000
   -0.10000000    0.00000000    0.30000000
   -0.10000000    0.00000000   -0.30000000
    0.10000000    0.00000000    0.30000000
    0.30000000   -0.10000000    0.00000000
   -0.30000000    0.10000000    0.00000000
   -0.30000000   -0.10000000    0.00000000
    0.30000000    0.10000000    0.00000000
    0.00000000    0.30000000    0.10000000
    0.00000000   -0.30000000   -0.10000000
    0.00000000    0.30000000   -0.10000000
    0.00000000   -0.30000000    0.10000000
    0.10000000    0.30000000    0.00000000
   -0.10000000   -0.30000000    0.00000000
   -0.10000000    0.30000000    0.00000000
    0.10000000   -0.30000000    0.00000000
    0.30000000    0.00000000    0.10000000
   -0.30000000    0.00000000   -0.10000000
    0.30000000    0.00000000   -0.10000000
   -0.30000000    0.00000000    0.10000000
    0.00000000    0.10000000    0.40000000
    0.00000000   -0.10000000   -0.40000000
    0.00000000   -0.10000000    0.40000000
    0.00000000    0.10000000   -0.40000000
    0.10000000    0.00000000   -0.40000000
   -0.10000000    0.00000000    0.40000000
   -0.10000000    0.00000000   -0.40000000
    0.10000000    0.00000000    0.40000000
    0.40000000   -0.10000000    0.00000000
   -0.40000000    0.10000000    0.00000000
   -0.40000000   -0.10000000    0.00000000
    0.40000000    0.10000000    0.00000000
    0.00000000    0.40000000    0.10000000
    0.00000000   -0.40000000   -0.10000000
    0.00000000    0.40000000   -0.10000000
    0.00000000   -0.40000000    0.10000000
    0.10000000    0.40000000    0.00000000
   -0.10000000   -0.40000000    0.00000000
   -0.10000000    0.40000000    0.00000000
    0.10000000   -0.40000000    0.00000000
    0.40000000    0.00000000    0.10000000
   -0.40000000    0.00000000   -0.10000000
    0.40000000    0.00000000   -0.10000000
   -0.40000000    0.00000000    0.10000000
    0.00000000    0.10000000    0.50000000
    0.00000000   -0.10000000    0.50000000
    0.10000000    0.00000000    0.50000000
   -0.10000000    0.00000000    0.50000000
    0.50000000   -0.10000000    0.00000000
    0.50000000    0.10000000    0.00000000
    0.00000000    0.50000000    0.10000000
    0.00000000    0.50000000   -0.10000000
    0.10000000    0.50000000    0.00000000
   -0.10000000    0.50000000    0.00000000
    0.50000000    0.00000000    0.10000000
    0.50000000    0.00000000   -0.10000000
    0.00000000    0.20000000    0.20000000
    0.00000000   -0.20000000   -0.20000000
    0.00000000   -0.20000000    0.20000000
    0.00000000    0.20000000   -0.20000000
    0.20000000    0.00000000   -0.20000000
   -0.20000000    0.00000000    0.20000000
   -0.20000000    0.00000000   -0.20000000
    0.20000000    0.00000000    0.20000000
    0.20000000   -0.20000000    0.00000000
   -0.20000000    0.20000000    0.00000000
   -0.20000000   -0.20000000    0.00000000
    0.20000000    0.20000000    0.00000000
    0.00000000    0.20000000    0.30000000
    0.00000000   -0.20000000   -0.30000000
    0.00000000   -0.20000000    0.30000000
    0.00000000    0.20000000   -0.30000000
    0.20000000    0.00000000   -0.30000000
   -0.20000000    0.00000000    0.30000000
   -0.20000000    0.00000000   -0.30000000
    0.20000000    0.00000000    0.30000000
    0.30000000   -0.20000000    0.00000000
   -0.30000000    0.20000000    0.00000000
   -0.30000000   -0.20000000    0.00000000
    0.30000000    0.20000000    0.00000000
    0.00000000    0.30000000    0.20000000
    0.00000000   -0.30000000   -0.20000000
    0.00000000    0.30000000   -0.20000000
    0.00000000   -0.30000000    0.20000000
    0.20000000    0.30000000    0.00000000
   -0.20000000   -0.30000000    0.00000000
   -0.20000000    0.30000000    0.00000000
    0.20000000   -0.30000000    0.00000000
    0.30000000    0.00000000    0.20000000
   -0.30000000    0.00000000   -0.20000000
    0.30000000    0.00000000   -0.20000000
   -0.30000000    0.00000000    0.20000000
    0.00000000    0.20000000    0.40000000
    0.00000000   -0.20000000   -0.40000000
    0.00000000   -0.20000000    0.40000000
    0.00000000    0.20000000   -0.40000000
    0.20000000    0.00000000   -0.40000000
   -0.20000000    0.00000000    0.40000000
   -0.20000000    0.00000000   -0.40000000
    0.20000000    0.00000000    0.40000000
    0.40000000   -0.20000000    0.00000000
   -0.40000000    0.20000000    0.00000000
   -0.40000000   -0.20000000    0.00000000
    0.40000000    0.20000000    0.00000000
    0.00000000    0.40000000    0.20000000
    0.00000000   -0.40000000   -0.20000000
    0.00000000    0.40000000   -0.20000000
    0.00000000   -0.40000000    0.20000000
    0.20000000    0.40000000    0.00000000
   -0.20000000   -0.40000000    0.00000000
   -0.20000000    0.40000000    0.00000000
    0.20000000   -0.40000000    0.00000000
    0.40000000    0.00000000    0.20000000
   -0.40000000    0.00000000   -0.20000000
    0.40000000    0.00000000   -0.20000000
   -0.40000000    0.00000000    0.20000000
    0.00000000    0.20000000    0.50000000
    0.00000000   -0.20000000    0.50000000
    0.20000000    0.00000000    0.50000000
   -0.20000000    0.00000000    0.50000000
    0.50000000   -0.20000000    0.00000000
    0.50000000    0.20000000    0.00000000
    0.00000000    0.50000000    0.20000000
    0.00000000    0.50000000   -0.20000000
    0.20000000    0.50000000    0.00000000
   -0.20000000    0.50000000    0.00000000
    0.50000000    0.00000000    0.20000000
    0.50000000    0.00000000   -0.20000000
    0.00000000    0.30000000    0.30000000
    0.00000000   -0.30000000   -0.30000000
    0.00000000   -0.30000000    0.30000000
    0.00000000    0.30000000   -0.30000000
    0.30000000    0.00000000   -0.30000000
   -0.30000000    0.00000000    0.30000000
   -0.30000000    0.00000000   -0.30000000
    0.30000000    0.00000000    0.30000000
    0.30000000   -0.30000000    0.00000000
   -0.30000000    0.30000000    0.00000000
   -0.30000000   -0.30000000    0.00000000
    0.30000000    0.30000000    0.00000000
    0.00000000    0.30000000    0.40000000
    0.00000000   -0.30000000   -0.40000000
    0.00000000   -0.30000000    0.40000000
    0.00000000    0.30000000   -0.40000000
    0.30000000    0.00000000   -0.40000000
   -0.30000000    0.00000000    0.40000000
   -0.30000000    0.00000000   -0.40000000
    0.30000000    0.00000000    0.40000000
    0.40000000   -0.30000000    0.00000000
   -0.40000000    0.30000000    0.00000000
   -0.40000000   -0.30000000    0.00000000
    0.40000000    0.30000000    0.00000000
    0.00000000    0.40000000    0.30000000
    0.00000000   -0.40000000   -0.30000000
    0.00000000    0.40000000   -0.30000000
    0.00000000   -0.40000000    0.30000000
    0.30000000    0.40000000    0.00000000
   -0.30000000   -0.40000000    0.00000000
   -0.30000000    0.40000000    0.00000000
    0.30000000   -0.40000000    0.00000000
    0.40000000    0.00000000    0.30000000
   -0.40000000    0.00000000   -0.30000000
    0.40000000    0.00000000   -0.30000000
   -0.40000000    0.00000000    0.30000000
    0.00000000    0.30000000    0.50000000
    0.00000000   -0.30000000    0.50000000
    0.30000000    0.00000000    0.50000000
   -0.30000000    0.00000000    0.50000000
    0.50000000   -0.30000000    0.00000000
    0.50000000    0.30000000    0.00000000
    0.00000000    0.50000000    0.30000000
    0.00000000    0.50000000   -0.30000000
    0.30000000    0.50000000    0.00000000
   -0.30000000    0.50000000    0.00000000
    0.50000000    0.00000000    0.30000000
    0.50000000    0.00000000   -0.30000000
    0.00000000    0.40000000    0.40000000
    0.00000000   -0.40000000   -0.40000000
    0.00000000   -0.40000000    0.40000000
    0.00000000    0.40000000   -0.40000000
    0.40000000    0.00000000   -0.40000000
   -0.40000000    0.00000000    0.40000000
   -0.40000000    0.00000000   -0.40000000
    0.40000000    0.00000000    0.40000000
    0.40000000   -0.40000000    0.00000000
   -0.40000000    0.40000000    0.00000000
   -0.40000000   -0.40000000    0.00000000
    0.40000000    0.40000000    0.00000000
    0.00000000    0.40000000    0.50000000
    0.00000000   -0.40000000    0.50000000
    0.40000000    0.00000000    0.50000000
   -0.40000000    0.00000000    0.50000000
    0.50000000   -0.40000000    0.00000000
    0.50000000    0.40000000    0.00000000
    0.00000000    0.50000000    0.40000000
    0.00000000    0.50000000   -0.40000000
    0.40000000    0.50000000    0.00000000
   -0.40000000    0.50000000    0.00000000
    0.50000000    0.00000000    0.40000000
    0.50000000    0.00000000   -0.40000000
    0.00000000    0.50000000    0.50000000
    0.50000000    0.00000000    0.50000000
    0.50000000    0.50000000    0.00000000
    0.10000000    0.10000000    0.10000000
   -0.10000000   -0.10000000   -0.10000000
   -0.10000000   -0.10000000    0.10000000
    0.10000000    0.10000000   -0.10000000
   -0.10000000    0.10000000   -0.10000000
    0.10000000   -0.10000000    0.10000000
    0.10000000   -0.10000000   -0.10000000
   -0.10000000    0.10000000    0.10000000
    0.10000000    0.10000000    0.20000000
   -0.10000000   -0.10000000   -0.20000000
   -0.10000000   -0.10000000    0.20000000
    0.10000000    0.10000000   -0.20000000
   -0.10000000    0.10000000   -0.20000000
    0.10000000   -0.10000000    0.20000000
    0.10000000   -0.10000000   -0.20000000
   -0.10000000    0.10000000    0.20000000
    0.20000000   -0.10000000    0.10000000
   -0.20000000    0.10000000   -0.10000000
   -0.20000000   -0.10000000   -0.10000000
    0.20000000    0.10000000    0.10000000
    0.20000000    0.10000000   -0.10000000
   -0.20000000   -0.10000000    0.10000000
   -0.20000000    0.10000000    0.10000000
    0.20000000   -0.10000000   -0.10000000
   -0.10000000    0.20000000    0.10000000
    0.10000000   -0.20000000   -0.10000000
   -0.10000000   -0.20000000   -0.10000000
    0.10000000    0.20000000    0.10000000
    0.10000000    0.20000000   -0.10000000
   -0.10000000   -0.20000000    0.10000000
    0.10000000   -0.20000000    0.10000000
   -0.10000000    0.20000000   -0.10000000
    0.10000000    0.10000000    0.30000000
   -0.10000000   -0.10000000   -0.30000000
   -0.10000000   -0.10000000    0.30000000
    0.10000000    0.10000000   -0.30000000
   -0.10000000    0.10000000   -0.30000000
    0.10000000   -0.10000000    0.30000000
    0.10000000   -0.10000000   -0.30000000
   -0.10000000    0.10000000    0.30000000
    0.30000000   -0.10000000    0.10000000
   -0.30000000    0.10000000   -0.10000000
   -0.30000000   -0.10000000   -0.10000000
    0.30000000    0.10000000    0.10000000
    0.30000000    0.10000000   -0.10000000
   -0.30000000   -0.10000000    0.10000000
   -0.30000000    0.10000000    0.10000000
    0.30000000   -0.10000000   -0.10000000
   -0.10000000    0.30000000    0.10000000
    0.10000000   -0.30000000   -0.10000000
   -0.10000000   -0.30000000   -0.10000000
    0.10000000    0.30000000    0.10000000
    0.10000000    0.30000000   -0.10000000
   -0.10000000   -0.30000000    0.10000000
    0.10000000   -0.30000000    0.10000000
   -0.10000000    0.30000000   -0.10000000
    0.10000000    0.10000000    0.40000000
   -0.10000000   -0.10000000   -0.40000000
   -0.10000000   -0.10000000    0.40000000
    0.10000000    0.10000000   -0.40000000
   -0.10000000    0.10000000   -0.40000000
    0.10000000   -0.10000000    0.40000000
    0.10000000   -0.10000000   -0.40000000
   -0.10000000    0.10000000    0.40000000
    0.40000000   -0.10000000    0.10000000
   -0.40000000    0.10000000   -0.10000000
   -0.40000000   -0.10000000   -0.10000000
    0.40000000    0.10000000    0.10000000
    0.40000000    0.10000000   -0.10000000
   -0.40000000   -0.10000000    0.10000000
   -0.40000000    0.10000000    0.10000000
    0.40000000   -0.10000000   -0.10000000
   -0.10000000    0.40000000    0.10000000
    0.10000000   -0.40000000   -0.10000000
   -0.10000000   -0.40000000   -0.10000000
    0.10000000    0.40000000    0.10000000
    0.10000000    0.40000000   -0.10000000
   -0.10000000   -0.40000000    0.10000000
    0.10000000   -0.40000000    0.10000000
   -0.10000000    0.40000000   -0.10000000
    0.10000000    0.10000000    0.50000000
   -0.10000000   -0.10000000    0.50000000
   -0.10000000    0.10000000    0.50000000
    0.10000000   -0.10000000    0.50000000
    0.50000000   -0.10000000    0.10000000
    0.50000000    0.10000000   -0.10000000
    0.50000000   -0.10000000   -0.10000000
    0.50000000    0.10000000    0.10000000
   -0.10000000    0.50000000    0.10000000
    0.10000000    0.50000000   -0.10000000
   -0.10000000    0.50000000   -0.10000000
    0.10000000    0.50000000    0.10000000
    0.10000000    0.20000000    0.20000000
   -0.10000000   -0.20000000   -0.20000000
   -0.10000000   -0.20000000    0.20000000
    0.10000000    0.20000000   -0.20000000
   -0.10000000    0.20000000   -0.20000000
    0.10000000   -0.20000000    0.20000000
    0.10000000   -0.20000000   -0.20000000
   -0.10000000    0.20000000    0.20000000
    0.20000000    0.10000000   -0.20000000
   -0.20000000   -0.10000000    0.20000000
   -0.20000000   -0.10000000   -0.20000000
    0.20000000    0.10000000    0.20000000
    0.20000000   -0.10000000    0.20000000
   -0.20000000    0.10000000   -0.20000000
   -0.20000000    0.10000000    0.20000000
    0.20000000   -0.10000000   -0.20000000
    0.20000000   -0.20000000    0.10000000
   -0.20000000    0.20000000   -0.10000000
   -0.20000000   -0.20000000   -0.10000000
    0.20000000    0.20000000    0.10000000
    0.20000000    0.20000000   -0.10000000
   -0.20000000   -0.20000000    0.10000000
   -0.20000000    0.20000000    0.10000000
    0.20000000   -0.20000000   -0.10000000
    0.10000000    0.20000000    0.30000000
   -0.10000000   -0.20000000   -0.30000000
   -0.10000000   -0.20000000    0.30000000
    0.10000000    0.20000000   -0.30000000
   -0.10000000    0.20000000   -0.30000000
    0.10000000   -0.20000000    0.30000000
    0.10000000   -0.20000000   -0.30000000
   -0.10000000    0.20000000    0.30000000
    0.20000000    0.10000000   -0.30000000
   -0.20000000   -0.10000000    0.30000000
   -0.20000000   -0.10000000   -0.30000000
    0.20000000    0.10000000    0.30000000
    0.20000000   -0.10000000    0.30000000
   -0.20000000    0.10000000   -0.30000000
   -0.20000000    0.10000000    0.30000000
    0.20000000   -0.10000000   -0.30000000
    0.30000000   -0.20000000    0.10000000
   -0.30000000    0.20000000   -0.10000000
   -0.30000000   -0.20000000   -0.10000000
    0.30000000    0.20000000    0.10000000
    0.30000000    0.20000000   -0.10000000
   -0.30000000   -0.20000000    0.10000000
   -0.30000000    0.20000000    0.10000000
    0.30000000   -0.20000000   -0.10000000
   -0.10000000    0.30000000    0.20000000
    0.10000000   -0.30000000   -0.20000000
   -0.10000000   -0.30000000   -0.20000000
    0.10000000    0.30000000    0.20000000
    0.10000000    0.30000000   -0.20000000
   -0.10000000   -0.30000000    0.20000000
    0.10000000   -0.30000000    0.20000000
   -0.10000000    0.30000000   -0.20000000
    0.20000000    0.30000000    0.10000000
   -0.20000000   -0.30000000   -0.10000000
   -0.20000000    0.30000000   -0.10000000
    0.20000000   -0.30000000    0.10000000
    0.20000000   -0.30000000   -0.10000000
   -0.20000000    0.30000000    0.10000000
   -0.20000000   -0.30000000    0.10000000
    0.20000000    0.30000000   -0.10000000
    0.30000000    0.10000000    0.20000000
   -0.30000000   -0.10000000   -0.20000000
    0.30000000   -0.10000000   -0.20000000
   -0.30000000    0.10000000    0.20000000
   -0.30000000   -0.10000000    0.20000000
    0.30000000    0.10000000   -0.20000000
   -0.30000000    0.10000000   -0.20000000
    0.30000000   -0.10000000    0.20000000
    0.10000000    0.20000000    0.40000000
   -0.10000000   -0.20000000   -0.40000000
   -0.10000000   -0.20000000    0.40000000
    0.10000000    0.20000000   -0.40000000
   -0.10000000    0.20000000   -0.40000000
    0.10000000   -0.20000000    0.40000000
    0.10000000   -0.20000000   -0.40000000
   -0.10000000    0.20000000    0.40000000
    0.20000000    0.10000000   -0.40000000
   -0.20000000   -0.10000000    0.40000000
   -0.20000000   -0.10000000   -0.40000000
    0.20000000    0.10000000    0.40000000
    0.20000000   -0.10000000    0.40000000
   -0.20000000    0.10000000   -0.40000000
   -0.20000000    0.10000000    0.40000000
    0.20000000   -0.10000000   -0.40000000
    0.40000000   -0.20000000    0.10000000
   -0.40000000    0.20000000   -0.10000000
   -0.40000000   -0.20000000   -0.10000000
    0.40000000    0.20000000    0.10000000
    0.40000000    0.20000000   -0.10000000
   -0.40000000   -0.20000000    0.10000000
   -0.40000000    0.20000000    0.10000000
    0.40000000   -0.20000000   -0.10000000
   -0.10000000    0.40000000    0.20000000
    0.10000000   -0.40000000   -0.20000000
   -0.10000000   -0.40000000   -0.20000000
    0.10000000    0.40000000    0.20000000
    0.10000000    0.40000000   -0.20000000
   -0.10000000   -0.40000000    0.20000000
    0.10000000   -0.40000000    0.20000000
   -0.10000000    0.40000000   -0.20000000
    0.20000000    0.40000000    0.10000000
   -0.20000000   -0.40000000   -0.10000000
   -0.20000000    0.40000000   -0.10000000
    0.20000000   -0.40000000    0.10000000
    0.20000000   -0.40000000   -0.10000000
   -0.20000000    0.40000000    0.10000000
   -0.20000000   -0.40000000    0.10000000
    0.20000000    0.40000000   -0.10000000
    0.40000000    0.10000000    0.20000000
   -0.40000000   -0.10000000   -0.20000000
    0.40000000   -0.10000000   -0.20000000
   -0.40000000    0.10000000    0.20000000
   -0.40000000   -0.10000000    0.20000000
    0.40000000    0.10000000   -0.20000000
   -0.40000000    0.10000000   -0.20000000
    0.40000000   -0.10000000    0.20000000
    0.10000000    0.20000000    0.50000000
   -0.10000000   -0.20000000    0.50000000
   -0.10000000    0.20000000    0.50000000
    0.10000000   -0.20000000    0.50000000
    0.20000000    0.10000000    0.50000000
   -0.20000000   -0.10000000    0.50000000
    0.20000000   -0.10000000    0.50000000
   -0.20000000    0.10000000    0.50000000
    0.50000000   -0.20000000    0.10000000
    0.50000000    0.20000000   -0.10000000
    0.50000000   -0.20000000   -0.10000000
    0.50000000    0.20000000    0.10000000
   -0.10000000    0.50000000    0.20000000
    0.10000000    0.50000000   -0.20000000
   -0.10000000    0.50000000   -0.20000000
    0.10000000    0.50000000    0.20000000
    0.20000000    0.50000000    0.10000000
   -0.20000000    0.50000000   -0.10000000
    0.20000000    0.50000000   -0.10000000
   -0.20000000    0.50000000    0.10000000
    0.50000000    0.10000000    0.20000000
    0.50000000   -0.10000000   -0.20000000
    0.50000000   -0.10000000    0.20000000
    0.50000000    0.10000000   -0.20000000
    0.10000000    0.30000000    0.30000000
   -0.10000000   -0.30000000   -0.30000000
   -0.10000000   -0.30000000    0.30000000
    0.10000000    0.30000000   -0.30000000
   -0.10000000    0.30000000   -0.30000000
    0.10000000   -0.30000000    0.30000000
    0.10000000   -0.30000000   -0.30000000
   -0.10000000    0.30000000    0.30000000
    0.30000000    0.10000000   -0.30000000
   -0.30000000   -0.10000000    0.30000000
   -0.30000000   -0.10000000   -0.30000000
    0.30000000    0.10000000    0.30000000
    0.30000000   -0.10000000    0.30000000
   -0.30000000    0.10000000   -0.30000000
   -0.30000000    0.10000000    0.30000000
    0.30000000   -0.10000000   -0.30000000
    0.30000000   -0.30000000    0.10000000
   -0.30000000    0.30000000   -0.10000000
   -0.30000000   -0.30000000   -0.10000000
    0.30000000    0.30000000    0.10000000
    0.30000000    0.30000000   -0.10000000
   -0.30000000   -0.30000000    0.10000000
   -0.30000000    0.30000000    0.10000000
    0.30000000   -0.30000000   -0.10000000
    0.10000000    0.30000000    0.40000000
   -0.10000000   -0.30000000   -0.40000000
   -0.10000000   -0.30000000    0.40000000
    0.10000000    0.30000000   -0.40000000
   -0.10000000    0.30000000   -0.40000000
    0.10000000   -0.30000000    0.40000000
    0.10000000   -0.30000000   -0.40000000
   -0.10000000    0.30000000    0.40000000
    0.30000000    0.10000000   -0.40000000
   -0.30000000   -0.10000000    0.40000000
   -0.30000000   -0.10000000   -0.40000000
    0.30000000    0.10000000    0.40000000
    0.30000000   -0.10000000    0.40000000
   -0.30000000    0.10000000   -0.40000000
   -0.30000000    0.10000000    0.40000000
    0.30000000   -0.10000000   -0.40000000
    0.40000000   -0.30000000    0.10000000
   -0.40000000    0.30000000   -0.10000000
   -0.40000000   -0.30000000   -0.10000000
    0.40000000    0.30000000    0.10000000
    0.40000000    0.30000000   -0.10000000
   -0.40000000   -0.30000000    0.10000000
   -0.40000000    0.30000000    0.10000000
    0.40000000   -0.30000000   -0.10000000
   -0.10000000    0.40000000    0.30000000
    0.10000000   -0.40000000   -0.30000000
   -0.10000000   -0.40000000   -0.30000000
    0.10000000    0.40000000    0.30000000
    0.10000000    0.40000000   -0.30000000
   -0.10000000   -0.40000000    0.30000000
    0.10000000   -0.40000000    0.30000000
   -0.10000000    0.40000000   -0.30000000
    0.30000000    0.40000000    0.10000000
   -0.30000000   -0.40000000   -0.10000000
   -0.30000000    0.40000000   -0.10000000
    0.30000000   -0.40000000    0.10000000
    0.30000000   -0.40000000   -0.10000000
   -0.30000000    0.40000000    0.10000000
   -0.30000000   -0.40000000    0.10000000
    0.30000000    0.40000000   -0.10000000
    0.40000000    0.10000000    0.30000000
   -0.40000000   -0.10000000   -0.30000000
    0.40000000   -0.10000000   -0.30000000
   -0.40000000    0.10000000    0.30000000
   -0.40000000   -0.10000000    0.30000000
    0.40000000    0.10000000   -0.30000000
   -0.40000000    0.10000000   -0.30000000
    0.40000000   -0.10000000    0.30000000
    0.10000000    0.30000000    0.50000000
   -0.10000000   -0.30000000    0.50000000
   -0.10000000    0.30000000    0.50000000
    0.10000000   -0.30000000    0.50000000
    0.30000000    0.10000000    0.50000000
   -0.30000000   -0.10000000    0.50000000
    0.30000000   -0.10000000    0.50000000
   -0.30000000    0.10000000    0.50000000
    0.50000000   -0.30000000    0.10000000
    0.50000000    0.30000000   -0.10000000
    0.50000000   -0.30000000   -0.10000000
    0.50000000    0.30000000    0.10000000
   -0.10000000    0.50000000    0.30000000
    0.10000000    0.50000000   -0.30000000
   -0.10000000    0.50000000   -0.30000000
    0.10000000    0.50000000    0.30000000
    0.30000000    0.50000000    0.10000000
   -0.30000000    0.50000000   -0.10000000
    0.30000000    0.50000000   -0.10000000
   -0.30000000    0.50000000    0.10000000
    0.50000000    0.10000000    0.30000000
    0.50000000   -0.10000000   -0.30000000
    0.50000000   -0.10000000    0.30000000
    0.50000000    0.10000000   -0.30000000
    0.10000000    0.40000000    0.40000000
   -0.10000000   -0.40000000   -0.40000000
   -0.10000000   -0.40000000    0.40000000
    0.10000000    0.40000000   -0.40000000
   -0.10000000    0.40000000   -0.40000000
    0.10000000   -0.40000000    0.40000000
    0.10000000   -0.40000000   -0.40000000
   -0.10000000    0.40000000    0.40000000
    0.40000000    0.10000000   -0.40000000
   -0.40000000   -0.10000000    0.40000000
   -0.40000000   -0.10000000   -0.40000000
    0.40000000    0.10000000    0.40000000
    0.40000000   -0.10000000    0.40000000
   -0.40000000    0.10000000   -0.40000000
   -0.40000000    0.10000000    0.40000000
    0.40000000   -0.10000000   -0.40000000
    0.40000000   -0.40000000    0.10000000
   -0.40000000    0.40000000   -0.10000000
   -0.40000000   -0.40000000   -0.10000000
    0.40000000    0.40000000    0.10000000
    0.40000000    0.40000000   -0.10000000
   -0.40000000   -0.40000000    0.10000000
   -0.40000000    0.40000000    0.10000000
    0.40000000   -0.40000000   -0.10000000
    0.10000000    0.40000000    0.50000000
   -0.10000000   -0.40000000    0.50000000
   -0.10000000    0.40000000    0.50000000
    0.10000000   -0.40000000    0.50000000
    0.40000000    0.10000000    0.50000000
   -0.40000000   -0.10000000    0.50000000
    0.40000000   -0.10000000    0.50000000
   -0.40000000    0.10000000    0.50000000
    0.50000000   -0.40000000    0.10000000
    0.50000000    0.40000000   -0.10000000
    0.50000000   -0.40000000   -0.10000000
    0.50000000    0.40000000    0.10000000
   -0.10000000    0.50000000    0.40000000
    0.10000000    0.50000000   -0.40000000
   -0.10000000    0.50000000   -0.40000000
    0.10000000    0.50000000    0.40000000
    0.40000000    0.50000000    0.10000000
   -0.40000000    0.50000000   -0.10000000
    0.40000000    0.50000000   -0.10000000
   -0.40000000    0.50000000    0.10000000
    0.50000000    0.10000000    0.40000000
    0.50000000   -0.10000000   -0.40000000
    0.50000000   -0.10000000    0.40000000
    0.50000000    0.10000000   -0.40000000
    0.10000000    0.50000000    0.50000000
   -0.10000000    0.50000000    0.50000000
    0.50000000    0.10000000    0.50000000
    0.50000000   -0.10000000    0.50000000
    0.50000000    0.50000000    0.10000000
    0.50000000    0.50000000   -0.10000000
    0.20000000    0.20000000    0.20000000
   -0.20000000   -0.20000000   -0.20000000
   -0.20000000   -0.20000000    0.20000000
    0.20000000    0.20000000   -0.20000000
   -0.20000000    0.20000000   -0.20000000
    0.20000000   -0.20000000    0.20000000
    0.20000000   -0.20000000   -0.20000000
   -0.20000000    0.20000000    0.20000000
    0.20000000    0.20000000    0.30000000
   -0.20000000   -0.20000000   -0.30000000
   -0.20000000   -0.20000000    0.30000000
    0.20000000    0.20000000   -0.30000000
   -0.20000000    0.20000000   -0.30000000
    0.20000000   -0.20000000    0.30000000
    0.20000000   -0.20000000   -0.30000000
   -0.20000000    0.20000000    0.30000000
    0.30000000   -0.20000000    0.20000000
   -0.30000000    0.20000000   -0.20000000
   -0.30000000   -0.20000000   -0.20000000
    0.30000000    0.20000000    0.20000000
    0.30000000    0.20000000   -0.20000000
   -0.30000000   -0.20000000    0.20000000
   -0.30000000    0.20000000    0.20000000
    0.30000000   -0.20000000   -0.20000000
   -0.20000000    0.30000000    0.20000000
    0.20000000   -0.30000000   -0.20000000
   -0.20000000   -0.30000000   -0.20000000
    0.20000000    0.30000000    0.20000000
    0.20000000    0.30000000   -0.20000000
   -0.20000000   -0.30000000    0.20000000
    0.20000000   -0.30000000    0.20000000
   -0.20000000    0.30000000   -0.20000000
    0.20000000    0.20000000    0.40000000
   -0.20000000   -0.20000000   -0.40000000
   -0.20000000   -0.20000000    0.40000000
    0.20000000    0.20000000   -0.40000000
   -0.20000000    0.20000000   -0.40000000
    0.20000000   -0.20000000    0.40000000
    0.20000000   -0.20000000   -0.40000000
   -0.20000000    0.20000000    0.40000000
    0.40000000   -0.20000000    0.20000000
   -0.40000000    0.20000000   -0.20000000
   -0.40000000   -0.20000000   -0.20000000
    0.40000000    0.20000000    0.20000000
    0.40000000    0.20000000   -0.20000000
   -0.40000000   -0.20000000    0.20000000
   -0.40000000    0.20000000    0.20000000
    0.40000000   -0.20000000   -0.20000000
   -0.20000000    0.40000000    0.20000000
    0.20000000   -0.40000000   -0.20000000
   -0.20000000   -0.40000000   -0.20000000
    0.20000000    0.40000000    0.20000000
    0.20000000    0.40000000   -0.20000000
   -0.20000000   -0.40000000    0.20000000
    0.20000000   -0.40000000    0.20000000
   -0.20000000    0.40000000   -0.20000000
    0.20000000    0.20000000    0.50000000
   -0.20000000   -0.20000000    0.50000000
   -0.20000000    0.20000000    0.50000000
    0.20000000   -0.20000000    0.50000000
    0.50000000   -0.20000000    0.20000000
    0.50000000    0.20000000   -0.20000000
    0.50000000   -0.20000000   -0.20000000
    0.50000000    0.20000000    0.20000000
   -0.20000000    0.50000000    0.20000000
    0.20000000    0.50000000   -0.20000000
   -0.20000000    0.50000000   -0.20000000
    0.20000000    0.50000000    0.20000000
    0.20000000    0.30000000    0.30000000
   -0.20000000   -0.30000000   -0.30000000
   -0.20000000   -0.30000000    0.30000000
    0.20000000    0.30000000   -0.30000000
   -0.20000000    0.30000000   -0.30000000
    0.20000000   -0.30000000    0.30000000
    0.20000000   -0.30000000   -0.30000000
   -0.20000000    0.30000000    0.30000000
    0.30000000    0.20000000   -0.30000000
   -0.30000000   -0.20000000    0.30000000
   -0.30000000   -0.20000000   -0.30000000
    0.30000000    0.20000000    0.30000000
    0.30000000   -0.20000000    0.30000000
   -0.30000000    0.20000000   -0.30000000
   -0.30000000    0.20000000    0.30000000
    0.30000000   -0.20000000   -0.30000000
    0.30000000   -0.30000000    0.20000000
   -0.30000000    0.30000000   -0.20000000
   -0.30000000   -0.30000000   -0.20000000
    0.30000000    0.30000000    0.20000000
    0.30000000    0.30000000   -0.20000000
   -0.30000000   -0.30000000    0.20000000
   -0.30000000    0.30000000    0.20000000
    0.30000000   -0.30000000   -0.20000000
    0.20000000    0.30000000    0.40000000
   -0.20000000   -0.30000000   -0.40000000
   -0.20000000   -0.30000000    0.40000000
    0.20000000    0.30000000   -0.40000000
   -0.20000000    0.30000000   -0.40000000
    0.20000000   -0.30000000    0.40000000
    0.20000000   -0.30000000   -0.40000000
   -0.20000000    0.30000000    0.40000000
    0.30000000    0.20000000   -0.40000000
   -0.30000000   -0.20000000    0.40000000
   -0.30000000   -0.20000000   -0.40000000
    0.30000000    0.20000000    0.40000000
    0.30000000   -0.20000000    0.40000000
   -0.30000000    0.20000000   -0.40000000
   -0.30000000    0.20000000    0.40000000
    0.30000000   -0.20000000   -0.40000000
    0.40000000   -0.30000000    0.20000000
   -0.40000000    0.30000000   -0.20000000
   -0.40000000   -0.30000000   -0.20000000
    0.40000000    0.30000000    0.20000000
    0.40000000    0.30000000   -0.20000000
   -0.40000000   -0.30000000    0.20000000
   -0.40000000    0.30000000    0.20000000
    0.40000000   -0.30000000   -0.20000000
   -0.20000000    0.40000000    0.30000000
    0.20000000   -0.40000000   -0.30000000
   -0.20000000   -0.40000000   -0.30000000
    0.20000000    0.40000000    0.30000000
    0.20000000    0.40000000   -0.30000000
   -0.20000000   -0.40000000    0.30000000
    0.20000000   -0.40000000    0.30000000
   -0.20000000    0.40000000   -0.30000000
    0.30000000    0.40000000    0.20000000
   -0.30000000   -0.40000000   -0.20000000
   -0.30000000    0.40000000   -0.20000000
    0.30000000   -0.40000000    0.20000000
    0.30000000   -0.40000000   -0.20000000
   -0.30000000    0.40000000    0.20000000
   -0.30000000   -0.40000000    0.20000000
    0.30000000    0.40000000   -0.20000000
    0.40000000    0.20000000    0.30000000
   -0.40000000   -0.20000000   -0.30000000
    0.40000000   -0.20000000   -0.30000000
   -0.40000000    0.20000000    0.30000000
   -0.40000000   -0.20000000    0.30000000
    0.40000000    0.20000000   -0.30000000
   -0.40000000    0.20000000   -0.30000000
    0.40000000   -0.20000000    0.30000000
    0.20000000    0.30000000    0.50000000
   -0.20000000   -0.30000000    0.50000000
   -0.20000000    0.30000000    0.50000000
    0.20000000   -0.30000000    0.50000000
    0.30000000    0.20000000    0.50000000
   -0.30000000   -0.20000000    0.50000000
    0.30000000   -0.20000000    0.50000000
   -0.30000000    0.20000000    0.50000000
    0.50000000   -0.30000000    0.20000000
    0.50000000    0.30000000   -0.20000000
    0.50000000   -0.30000000   -0.20000000
    0.50000000    0.30000000    0.20000000
   -0.20000000    0.50000000    0.30000000
    0.20000000    0.50000000   -0.30000000
   -0.20000000    0.50000000   -0.30000000
    0.20000000    0.50000000    0.30000000
    0.30000000    0.50000000    0.20000000
   -0.30000000    0.50000000   -0.20000000
    0.30000000    0.50000000   -0.20000000
   -0.30000000    0.50000000    0.20000000
    0.50000000    0.20000000    0.30000000
    0.50000000   -0.20000000   -0.30000000
    0.50000000   -0.20000000    0.30000000
    0.50000000    0.20000000   -0.30000000
    0.20000000    0.40000000    0.40000000
   -0.20000000   -0.40000000   -0.40000000
   -0.20000000   -0.40000000    0.40000000
    0.20000000    0.40000000   -0.40000000
   -0.20000000    0.40000000   -0.40000000
    0.20000000   -0.40000000    0.40000000
    0.20000000   -0.40000000   -0.40000000
   -0.20000000    0.40000000    0.40000000
    0.40000000    0.20000000   -0.40000000
   -0.40000000   -0.20000000    0.40000000
   -0.40000000   -0.20000000   -0.40000000
    0.40000000    0.20000000    0.40000000
    0.40000000   -0.20000000    0.40000000
   -0.40000000    0.20000000   -0.40000000
   -0.40000000    0.20000000    0.40000000
    0.40000000   -0.20000000   -0.40000000
    0.40000000   -0.40000000    0.20000000
   -0.40000000    0.40000000   -0.20000000
   -0.40000000   -0.40000000   -0.20000000
    0.40000000    0.40000000    0.20000000
    0.40000000    0.40000000   -0.20000000
   -0.40000000   -0.40000000    0.20000000
   -0.40000000    0.40000000    0.20000000
    0.40000000   -0.40000000   -0.20000000
    0.20000000    0.40000000    0.50000000
   -0.20000000   -0.40000000    0.50000000
   -0.20000000    0.40000000    0.50000000
    0.20000000   -0.40000000    0.50000000
    0.40000000    0.20000000    0.50000000
   -0.40000000   -0.20000000    0.50000000
    0.40000000   -0.20000000    0.50000000
   -0.40000000    0.20000000    0.50000000
    0.50000000   -0.40000000    0.20000000
    0.50000000    0.40000000   -0.20000000
    0.50000000   -0.40000000   -0.20000000
    0.50000000    0.40000000    0.20000000
   -0.20000000    0.50000000    0.40000000
    0.20000000    0.50000000   -0.40000000
   -0.20000000    0.50000000   -0.40000000
    0.20000000    0.50000000    0.40000000
    0.40000000    0.50000000    0.20000000
   -0.40000000    0.50000000   -0.20000000
    0.40000000    0.50000000   -0.20000000
   -0.40000000    0.50000000    0.20000000
    0.50000000    0.20000000    0.40000000
    0.50000000   -0.20000000   -0.40000000
    0.50000000   -0.20000000    0.40000000
    0.50000000    0.20000000   -0.40000000
    0.20000000    0.50000000    0.50000000
   -0.20000000    0.50000000    0.50000000
    0.50000000    0.20000000    0.50000000
    0.50000000   -0.20000000    0.50000000
    0.50000000    0.50000000    0.20000000
    0.50000000    0.50000000   -0.20000000
    0.30000000    0.30000000    0.30000000
   -0.30000000   -0.30000000   -0.30000000
   -0.30000000   -0.30000000    0.30000000
    0.30000000    0.30000000   -0.30000000
   -0.30000000    0.30000000   -0.30000000
    0.30000000   -0.30000000    0.30000000
    0.30000000   -0.30000000   -0.30000000
   -0.30000000    0.30000000    0.30000000
    0.30000000    0.30000000    0.40000000
   -0.30000000   -0.30000000   -0.40000000
   -0.30000000   -0.30000000    0.40000000
    0.30000000    0.30000000   -0.40000000
   -0.30000000    0.30000000   -0.40000000
    0.30000000   -0.30000000    0.40000000
    0.30000000   -0.30000000   -0.40000000
   -0.30000000    0.30000000    0.40000000
    0.40000000   -0.30000000    0.30000000
   -0.40000000    0.30000000   -0.30000000
   -0.40000000   -0.30000000   -0.30000000
    0.40000000    0.30000000    0.30000000
    0.40000000    0.30000000   -0.30000000
   -0.40000000   -0.30000000    0.30000000
   -0.40000000    0.30000000    0.30000000
    0.40000000   -0.30000000   -0.30000000
   -0.30000000    0.40000000    0.30000000
    0.30000000   -0.40000000   -0.30000000
   -0.30000000   -0.40000000   -0.30000000
    0.30000000    0.40000000    0.30000000
    0.30000000    0.40000000   -0.30000000
   -0.30000000   -0.40000000    0.30000000
    0.30000000   -0.40000000    0.30000000
   -0.30000000    0.40000000   -0.30000000
    0.30000000    0.30000000    0.50000000
   -0.30000000   -0.30000000    0.50000000
   -0.30000000    0.30000000    0.50000000
    0.30000000   -0.30000000    0.50000000
    0.50000000   -0.30000000    0.30000000
    0.50000000    0.30000000   -0.30000000
    0.50000000   -0.30000000   -0.30000000
    0.50000000    0.30000000    0.30000000
   -0.30000000    0.50000000    0.30000000
    0.30000000    0.50000000   -0.30000000
   -0.30000000    0.50000000   -0.30000000
    0.30000000    0.50000000    0.30000000
    0.30000000    0.40000000    0.40000000
   -0.30000000   -0.40000000   -0.40000000
   -0.30000000   -0.40000000    0.40000000
    0.30000000    0.40000000   -0.40000000
   -0.30000000    0.40000000   -0.40000000
    0.30000000   -0.40000000    0.40000000
    0.30000000   -0.40000000   -0.40000000
   -0.30000000    0.40000000    0.40000000
    0.40000000    0.30000000   -0.40000000
   -0.40000000   -0.30000000    0.40000000
   -0.40000000   -0.30000000   -0.40000000
    0.40000000    0.30000000    0.40000000
    0.40000000   -0.30000000    0.40000000
   -0.40000000    0.30000000   -0.40000000
   -0.40000000    0.30000000    0.40000000
    0.40000000   -0.30000000   -0.40000000
    0.40000000   -0.40000000    0.30000000
   -0.40000000    0.40000000   -0.30000000
   -0.40000000   -0.40000000   -0.30000000
    0.40000000    0.40000000    0.30000000
    0.40000000    0.40000000   -0.30000000
   -0.40000000   -0.40000000    0.30000000
   -0.40000000    0.40000000    0.30000000
    0.40000000   -0.40000000   -0.30000000
    0.30000000    0.40000000    0.50000000
   -0.30000000   -0.40000000    0.50000000
   -0.30000000    0.40000000    0.50000000
    0.30000000   -0.40000000    0.50000000
    0.40000000    0.30000000    0.50000000
   -0.40000000   -0.30000000    0.50000000
    0.40000000   -0.30000000    0.50000000
   -0.40000000    0.30000000    0.50000000
    0.50000000   -0.40000000    0.30000000
    0.50000000    0.40000000   -0.30000000
    0.50000000   -0.40000000   -0.30000000
    0.50000000    0.40000000    0.30000000
   -0.30000000    0.50000000    0.40000000
    0.30000000    0.50000000   -0.40000000
   -0.30000000    0.50000000   -0.40000000
    0.30000000    0.50000000    0.40000000
    0.40000000    0.50000000    0.30000000
   -0.40000000    0.50000000   -0.30000000
    0.40000000    0.50000000   -0.30000000
   -0.40000000    0.50000000    0.30000000
    0.50000000    0.30000000    0.40000000
    0.50000000   -0.30000000   -0.40000000
    0.50000000   -0.30000000    0.40000000
    0.50000000    0.30000000   -0.40000000
    0.30000000    0.50000000    0.50000000
   -0.30000000    0.50000000    0.50000000
    0.50000000    0.30000000    0.50000000
    0.50000000   -0.30000000    0.50000000
    0.50000000    0.50000000    0.30000000
    0.50000000    0.50000000   -0.30000000
    0.40000000    0.40000000    0.40000000
   -0.40000000   -0.40000000   -0.40000000
   -0.40000000   -0.40000000    0.40000000
    0.40000000    0.40000000   -0.40000000
   -0.40000000    0.40000000   -0.40000000
    0.40000000   -0.40000000    0.40000000
    0.40000000   -0.40000000   -0.40000000
   -0.40000000    0.40000000    0.40000000
    0.40000000    0.40000000    0.50000000
   -0.40000000   -0.40000000    0.50000000
   -0.40000000    0.40000000    0.50000000
    0.40000000   -0.40000000    0.50000000
    0.50000000   -0.40000000    0.40000000
    0.50000000    0.40000000   -0.40000000
    0.50000000   -0.40000000   -0.40000000
    0.50000000    0.40000000    0.40000000
   -0.40000000    0.50000000    0.40000000
    0.40000000    0.50000000   -0.40000000
   -0.40000000    0.50000000   -0.40000000
    0.40000000    0.50000000    0.40000000
    0.40000000    0.50000000    0.50000000
   -0.40000000    0.50000000    0.50000000
    0.50000000    0.40000000    0.50000000
    0.50000000   -0.40000000    0.50000000
    0.50000000    0.50000000    0.40000000
    0.50000000    0.50000000   -0.40000000
    0.50000000    0.50000000    0.50000000
end kpoints

begin projections
     5
   0.50000    0.50000    0.50000     2  1  1
    0.0000000  0.0000000  1.0000000   1.0000000  0.0000000  0.0000000    1.00
   0.50000    0.50000    0.50000     2  2  1
    0.0000000  0.0000000  1.0000000   1.0000000  0.0000000  0.0000000    1.00
   0.50000    0.50000    0.50000     2  3  1
    0.0000000  0.0000000  1.0000000   1.0000000  0.0000000  0.0000000    1.00
   0.50000    0.50000    0.50000     2  4  1
    0.0000000  0.0000000  1.0000000   1.0000000  0.0000000  0.0000000    1.00
   0.50000    0.50000    0.50000     2  5  1
    0.0000000  0.0000000  1.0000000   1.0000000  0.0000000  0.0000000    1.00
end projections

begin nnkpts
   6
     1     2      0   0   0
     1     3      0   0   0
     1     4      0   0   0
     1     5      0   0   0
     1     6      0   0   0
     1     7      0   0   0
     2     1      0   0   0
     2     8      0   0   0
     2    29      0   0   0
     2    31      0   0   0
     2    34      0   0   0
     2    36      0   0   0
     3     1      0   0   0
     3     9      0   0   0
     3    30      0   0   0
     3    32      0   0   0
     3    33      0   0   0
     3    35      0   0   0
     4     1      0   0   0
     4    10      0   0   0
     4    33      0   0   0
     4    36      0   0   0
     4    37      0   0   0
     4    40      0   0   0
     5     1      0   0   0
     5    11      0   0   0
     5    34      0   0   0
     5    35      0   0   0
     5    38      0   0   0
     5    39      0   0   0
     6     1      0   0   0
     6    12      0   0   0
     6    29      0   0   0
     6    32      0   0   0
     6    38      0   0   0
     6    40      0   0   0
     7     1      0   0   0
     7    13      0   0   0
     7    30      0   0   0
     7    31      0   0   0
     7    37      0   0   0
     7    39      0   0   0
     8     2      0   0   0
     8    14      0   0   0
     8    41      0   0   0
     8    43      0   0   0
     8    46      0   0   0
     8    48      0   0   0
     9     3      0   0   0
     9    15      0   0   0
     9    42      0   0   0
     9    44      0   0   0
     9    45      0   0   0
     9    47      0   0   0
    10     4      0   0   0
    10    16      0   0   0
    10    49      0   0   0
    10    52      0   0   0
    10    61      0   0   0
    10    63      0   0   0
    11     5      0   0   0
    11    17      0   0   0
    11    50      0   0   0
    11    51      0   0   0
    11    62      0   0   0
    11    64      0   0   0
    12     6      0   0   0
    12    18      0   0   0
    12    53      0   0   0
    12    55      0   0   0
    12    57      0   0   0
    12    59      0   0   0
    13     7      0   0   0
    13    19      0   0   0
    13    54      0   0   0
    13    56      0   0   0
    13    58      0   0   0
    13    60      0   0   0
    14     8      0   0   0
    14    20      0   0   0
    14    65      0   0   0
    14    67      0   0   0
    14    70      0   0   0
    14    72      0   0   0
    15     9      0   0   0
    15    21      0   0   0
    15    66      0   0   0
    15    68      0   0   0
    15    69      0   0   0
    15    71      0   0   0
    16    10      0   0   0
    16    22      0   0   0
    16    73      0   0   0
    16    76      0   0   0
    16    85      0   0   0
    16    87      0   0   0
    17    11      0   0   0
    17    23      0   0   0
    17    74      0   0   0
    17    75      0   0   0
    17    86      0   0   0
    17    88      0   0   0
    18    12      0   0   0
    18    24      0   0   0
    18    77      0   0   0
    18    79      0   0   0
    18    81      0   0   0
    18    83      0   0   0
    19    13      0   0   0
    19    25      0   0   0
    19    78      0   0   0
    19    80      0   0   0
    19    82      0   0   0
    19    84      0   0   0
    20    14      0   0   0
    20    26      0   0   0
    20    89      0   0   0
    20    91      0   0   0
    20    94      0   0   0
    20    96      0   0   0
    21    15      0   0   0
    21    90      0   0   0
    21    92      0   0   0
    21    93      0   0   0
    21    95      0   0   0
    21    26      0   0  -1
    22    16      0   0   0
    22    27      0   0   0
    22    97      0   0   0
    22   100      0   0   0
    22   109      0   0   0
    22   111      0   0   0
    23    17      0   0   0
    23    98      0   0   0
    23    99      0   0   0
    23   110      0   0   0
    23   112      0   0   0
    23    27     -1   0   0
    24    18      0   0   0
    24    28      0   0   0
    24   101      0   0   0
    24   103      0   0   0
    24   105      0   0   0
    24   107      0   0   0
    25    19      0   0   0
    25   102      0   0   0
    25   104      0   0   0
    25   106      0   0   0
    25   108      0   0   0
    25    28      0  -1   0
    26    20      0   0   0
    26   113      0   0   0
    26   114      0   0   0
    26   115      0   0   0
    26   116      0   0   0
    26    21      0   0   1
    27    22      0   0   0
    27   117      0   0   0
    27   118      0   0   0
    27   123      0   0   0
    27   124      0   0   0
    27    23      1   0   0
    28    24      0   0   0
    28   119      0   0   0
    28   120      0   0   0
    28   121      0   0   0
    28   122      0   0   0
    28    25      0   1   0
    29     2      0   0   0
    29     6      0   0   0
    29    41      0   0   0
    29    53      0   0   0
    29   272      0   0   0
    29   279      0   0   0
    30     3      0   0   0
    30     7      0   0   0
    30    42      0   0   0
    30    54      0   0   0
    30   273      0   0   0
    30   278      0   0   0
    31     2      0   0   0
    31     7      0   0   0
    31    43      0   0   0
    31    56      0   0   0
    31   274      0   0   0
    31   277      0   0   0
    32     3      0   0   0
    32     6      0   0   0
    32    44      0   0   0
    32    55      0   0   0
    32   275      0   0   0
    32   276      0   0   0
    33     3      0   0   0
    33     4      0   0   0
    33    45      0   0   0
    33    63      0   0   0
    33   275      0   0   0
    33   278      0   0   0
    34     2      0   0   0
    34     5      0   0   0
    34    46      0   0   0
    34    64      0   0   0
    34   274      0   0   0
    34   279      0   0   0
    35     3      0   0   0
    35     5      0   0   0
    35    47      0   0   0
    35    62      0   0   0
    35   273      0   0   0
    35   276      0   0   0
    36     2      0   0   0
    36     4      0   0   0
    36    48      0   0   0
    36    61      0   0   0
    36   272      0   0   0
    36   277      0   0   0
    37     4      0   0   0
    37     7      0   0   0
    37    49      0   0   0
    37    60      0   0   0
    37   277      0   0   0
    37   278      0   0   0
    38     5      0   0   0
    38     6      0   0   0
    38    50      0   0   0
    38    59      0   0   0
    38   276      0   0   0
    38   279      0   0   0
    39     5      0   0   0
    39     7      0   0   0
    39    51      0   0   0
    39    58      0   0   0
    39   273      0   0   0
    39   274      0   0   0
    40     4      0   0   0
    40     6      0   0   0
    40    52      0   0   0
    40    57      0   0   0
    40   272      0   0   0
    40   275      0   0   0
    41     8      0   0   0
    41    29      0   0   0
    41    65      0   0   0
    41   125      0   0   0
    41   280      0   0   0
    41   287      0   0   0
    42     9      0   0   0
    42    30      0   0   0
    42    66      0   0   0
    42   126      0   0   0
    42   281      0   0   0
    42   286      0   0   0
    43     8      0   0   0
    43    31      0   0   0
    43    67      0   0   0
    43   127      0   0   0
    43   282      0   0   0
    43   285      0   0   0
    44     9      0   0   0
    44    32      0   0   0
    44    68      0   0   0
    44   128      0   0   0
    44   283      0   0   0
    44   284      0   0   0
    45     9      0   0   0
    45    33      0   0   0
    45    69      0   0   0
    45   129      0   0   0
    45   283      0   0   0
    45   286      0   0   0
    46     8      0   0   0
    46    34      0   0   0
    46    70      0   0   0
    46   130      0   0   0
    46   282      0   0   0
    46   287      0   0   0
    47     9      0   0   0
    47    35      0   0   0
    47    71      0   0   0
    47   131      0   0   0
    47   281      0   0   0
    47   284      0   0   0
    48     8      0   0   0
    48    36      0   0   0
    48    72      0   0   0
    48   132      0   0   0
    48   280      0   0   0
    48   285      0   0   0
    49    10      0   0   0
    49    37      0   0   0
    49    73      0   0   0
    49   133      0   0   0
    49   288      0   0   0
    49   295      0   0   0
    50    11      0   0   0
    50    38      0   0   0
    50    74      0   0   0
    50   134      0   0   0
    50   289      0   0   0
    50   294      0   0   0
    51    11      0   0   0
    51    39      0   0   0
    51    75      0   0   0
    51   135      0   0   0
    51   290      0   0   0
    51   293      0   0   0
    52    10      0   0   0
    52    40      0   0   0
    52    76      0   0   0
    52   136      0   0   0
    52   291      0   0   0
    52   292      0   0   0
    53    12      0   0   0
    53    29      0   0   0
    53    77      0   0   0
    53   125      0   0   0
    53   296      0   0   0
    53   299      0   0   0
    54    13      0   0   0
    54    30      0   0   0
    54    78      0   0   0
    54   126      0   0   0
    54   297      0   0   0
    54   298      0   0   0
    55    12      0   0   0
    55    32      0   0   0
    55    79      0   0   0
    55   128      0   0   0
    55   300      0   0   0
    55   303      0   0   0
    56    13      0   0   0
    56    31      0   0   0
    56    80      0   0   0
    56   127      0   0   0
    56   301      0   0   0
    56   302      0   0   0
    57    12      0   0   0
    57    40      0   0   0
    57    81      0   0   0
    57   136      0   0   0
    57   299      0   0   0
    57   300      0   0   0
    58    13      0   0   0
    58    39      0   0   0
    58    82      0   0   0
    58   135      0   0   0
    58   298      0   0   0
    58   301      0   0   0
    59    12      0   0   0
    59    38      0   0   0
    59    83      0   0   0
    59   134      0   0   0
    59   296      0   0   0
    59   303      0   0   0
    60    13      0   0   0
    60    37      0   0   0
    60    84      0   0   0
    60   133      0   0   0
    60   297      0   0   0
    60   302      0   0   0
    61    10      0   0   0
    61    36      0   0   0
    61    85      0   0   0
    61   132      0   0   0
    61   288      0   0   0
    61   291      0   0   0
    62    11      0   0   0
    62    35      0   0   0
    62    86      0   0   0
    62   131      0   0   0
    62   289      0   0   0
    62   290      0   0   0
    63    10      0   0   0
    63    33      0   0   0
    63    87      0   0   0
    63   129      0   0   0
    63   292      0   0   0
    63   295      0   0   0
    64    11      0   0   0
    64    34      0   0   0
    64    88      0   0   0
    64   130      0   0   0
    64   293      0   0   0
    64   294      0   0   0
    65    14      0   0   0
    65    41      0   0   0
    65    89      0   0   0
    65   137      0   0   0
    65   304      0   0   0
    65   311      0   0   0
    66    15      0   0   0
    66    42      0   0   0
    66    90      0   0   0
    66   138      0   0   0
    66   305      0   0   0
    66   310      0   0   0
    67    14      0   0   0
    67    43      0   0   0
    67    91      0   0   0
    67   139      0   0   0
    67   306      0   0   0
    67   309      0   0   0
    68    15      0   0   0
    68    44      0   0   0
    68    92      0   0   0
    68   140      0   0   0
    68   307      0   0   0
    68   308      0   0   0
    69    15      0   0   0
    69    45      0   0   0
    69    93      0   0   0
    69   141      0   0   0
    69   307      0   0   0
    69   310      0   0   0
    70    14      0   0   0
    70    46      0   0   0
    70    94      0   0   0
    70   142      0   0   0
    70   306      0   0   0
    70   311      0   0   0
    71    15      0   0   0
    71    47      0   0   0
    71    95      0   0   0
    71   143      0   0   0
    71   305      0   0   0
    71   308      0   0   0
    72    14      0   0   0
    72    48      0   0   0
    72    96      0   0   0
    72   144      0   0   0
    72   304      0   0   0
    72   309      0   0   0
    73    16      0   0   0
    73    49      0   0   0
    73    97      0   0   0
    73   145      0   0   0
    73   312      0   0   0
    73   319      0   0   0
    74    17      0   0   0
    74    50      0   0   0
    74    98      0   0   0
    74   146      0   0   0
    74   313      0   0   0
    74   318      0   0   0
    75    17      0   0   0
    75    51      0   0   0
    75    99      0   0   0
    75   147      0   0   0
    75   314      0   0   0
    75   317      0   0   0
    76    16      0   0   0
    76    52      0   0   0
    76   100      0   0   0
    76   148      0   0   0
    76   315      0   0   0
    76   316      0   0   0
    77    18      0   0   0
    77    53      0   0   0
    77   101      0   0   0
    77   149      0   0   0
    77   320      0   0   0
    77   323      0   0   0
    78    19      0   0   0
    78    54      0   0   0
    78   102      0   0   0
    78   150      0   0   0
    78   321      0   0   0
    78   322      0   0   0
    79    18      0   0   0
    79    55      0   0   0
    79   103      0   0   0
    79   151      0   0   0
    79   324      0   0   0
    79   327      0   0   0
    80    19      0   0   0
    80    56      0   0   0
    80   104      0   0   0
    80   152      0   0   0
    80   325      0   0   0
    80   326      0   0   0
    81    18      0   0   0
    81    57      0   0   0
    81   105      0   0   0
    81   153      0   0   0
    81   323      0   0   0
    81   324      0   0   0
    82    19      0   0   0
    82    58      0   0   0
    82   106      0   0   0
    82   154      0   0   0
    82   322      0   0   0
    82   325      0   0   0
    83    18      0   0   0
    83    59      0   0   0
    83   107      0   0   0
    83   155      0   0   0
    83   320      0   0   0
    83   327      0   0   0
    84    19      0   0   0
    84    60      0   0   0
    84   108      0   0   0
    84   156      0   0   0
    84   321      0   0   0
    84   326      0   0   0
    85    16      0   0   0
    85    61      0   0   0
    85   109      0   0   0
    85   157      0   0   0
    85   312      0   0   0
    85   315      0   0   0
    86    17      0   0   0
    86    62      0   0   0
    86   110      0   0   0
    86   158      0   0   0
    86   313      0   0   0
    86   314      0   0   0
    87    16      0   0   0
    87    63      0   0   0
    87   111      0   0   0
    87   159      0   0   0
    87   316      0   0   0
    87   319      0   0   0
    88    17      0   0   0
    88    64      0   0   0
    88   112      0   0   0
    88   160      0   0   0
    88   317      0   0   0
    88   318      0   0   0
    89    20      0   0   0
    89    65      0   0   0
    89   113      0   0   0
    89   161      0   0   0
    89   328      0   0   0
    89   335      0   0   0
    90    21      0   0   0
    90    66      0   0   0
    90   162      0   0   0
    90   329      0   0   0
    90   334      0   0   0
    90   114      0   0  -1
    91    20      0   0   0
    91    67      0   0   0
    91   114      0   0   0
    91   163      0   0   0
    91   330      0   0   0
    91   333      0   0   0
    92    21      0   0   0
    92    68      0   0   0
    92   164      0   0   0
    92   331      0   0   0
    92   332      0   0   0
    92   113      0   0  -1
    93    21      0   0   0
    93    69      0   0   0
    93   165      0   0   0
    93   331      0   0   0
    93   334      0   0   0
    93   115      0   0  -1
    94    20      0   0   0
    94    70      0   0   0
    94   116      0   0   0
    94   166      0   0   0
    94   330      0   0   0
    94   335      0   0   0
    95    21      0   0   0
    95    71      0   0   0
    95   167      0   0   0
    95   329      0   0   0
    95   332      0   0   0
    95   116      0   0  -1
    96    20      0   0   0
    96    72      0   0   0
    96   115      0   0   0
    96   168      0   0   0
    96   328      0   0   0
    96   333      0   0   0
    97    22      0   0   0
    97    73      0   0   0
    97   117      0   0   0
    97   169      0   0   0
    97   336      0   0   0
    97   343      0   0   0
    98    23      0   0   0
    98    74      0   0   0
    98   170      0   0   0
    98   337      0   0   0
    98   342      0   0   0
    98   118     -1   0   0
    99    23      0   0   0
    99    75      0   0   0
    99   171      0   0   0
    99   338      0   0   0
    99   341      0   0   0
    99   117     -1   0   0
   100    22      0   0   0
   100    76      0   0   0
   100   118      0   0   0
   100   172      0   0   0
   100   339      0   0   0
   100   340      0   0   0
   101    24      0   0   0
   101    77      0   0   0
   101   119      0   0   0
   101   173      0   0   0
   101   344      0   0   0
   101   347      0   0   0
   102    25      0   0   0
   102    78      0   0   0
   102   174      0   0   0
   102   345      0   0   0
   102   346      0   0   0
   102   120      0  -1   0
   103    24      0   0   0
   103    79      0   0   0
   103   120      0   0   0
   103   175      0   0   0
   103   348      0   0   0
   103   351      0   0   0
   104    25      0   0   0
   104    80      0   0   0
   104   176      0   0   0
   104   349      0   0   0
   104   350      0   0   0
   104   119      0  -1   0
   105    24      0   0   0
   105    81      0   0   0
   105   121      0   0   0
   105   177      0   0   0
   105   347      0   0   0
   105   348      0   0   0
   106    25      0   0   0
   106    82      0   0   0
   106   178      0   0   0
   106   346      0   0   0
   106   349      0   0   0
   106   122      0  -1   0
   107    24      0   0   0
   107    83      0   0   0
   107   122      0   0   0
   107   179      0   0   0
   107   344      0   0   0
   107   351      0   0   0
   108    25      0   0   0
   108    84      0   0   0
   108   180      0   0   0
   108   345      0   0   0
   108   350      0   0   0
   108   121      0  -1   0
   109    22      0   0   0
   109    85      0   0   0
   109   123      0   0   0
   109   181      0   0   0
   109   336      0   0   0
   109   339      0   0   0
   110    23      0   0   0
   110    86      0   0   0
   110   182      0   0   0
   110   337      0   0   0
   110   338      0   0   0
   110   124     -1   0   0
   111    22      0   0   0
   111    87      0   0   0
   111   124      0   0   0
   111   183      0   0   0
   111   340      0   0   0
   111   343      0   0   0
   112    23      0   0   0
   112    88      0   0   0
   112   184      0   0   0
   112   341      0   0   0
   112   342      0   0   0
   112   123     -1   0   0
   113    26      0   0   0
   113    89      0   0   0
   113   185      0   0   0
   113   352      0   0   0
   113   354      0   0   0
   113    92      0   0   1
   114    26      0   0   0
   114    91      0   0   0
   114   186      0   0   0
   114   353      0   0   0
   114   355      0   0   0
   114    90      0   0   1
   115    26      0   0   0
   115    96      0   0   0
   115   187      0   0   0
   115   352      0   0   0
   115   355      0   0   0
   115    93      0   0   1
   116    26      0   0   0
   116    94      0   0   0
   116   188      0   0   0
   116   353      0   0   0
   116   354      0   0   0
   116    95      0   0   1
   117    27      0   0   0
   117    97      0   0   0
   117   189      0   0   0
   117   356      0   0   0
   117   358      0   0   0
   117    99      1   0   0
   118    27      0   0   0
   118   100      0   0   0
   118   190      0   0   0
   118   357      0   0   0
   118   359      0   0   0
   118    98      1   0   0
   119    28      0   0   0
   119   101      0   0   0
   119   191      0   0   0
   119   360      0   0   0
   119   363      0   0   0
   119   104      0   1   0
   120    28      0   0   0
   120   103      0   0   0
   120   192      0   0   0
   120   361      0   0   0
   120   362      0   0   0
   120   102      0   1   0
   121    28      0   0   0
   121   105      0   0   0
   121   193      0   0   0
   121   361      0   0   0
   121   363      0   0   0
   121   108      0   1   0
   122    28      0   0   0
   122   107      0   0   0
   122   194      0   0   0
   122   360      0   0   0
   122   362      0   0   0
   122   106      0   1   0
   123    27      0   0   0
   123   109      0   0   0
   123   195      0   0   0
   123   356      0   0   0
   123   359      0   0   0
   123   112      1   0   0
   124    27      0   0   0
   124   111      0   0   0
   124   196      0   0   0
   124   357      0   0   0
   124   358      0   0   0
   124   110      1   0   0
   125    41      0   0   0
   125    53      0   0   0
   125   137      0   0   0
   125   149      0   0   0
   125   364      0   0   0
   125   371      0   0   0
   126    42      0   0   0
   126    54      0   0   0
   126   138      0   0   0
   126   150      0   0   0
   126   365      0   0   0
   126   370      0   0   0
   127    43      0   0   0
   127    56      0   0   0
   127   139      0   0   0
   127   152      0   0   0
   127   366      0   0   0
   127   369      0   0   0
   128    44      0   0   0
   128    55      0   0   0
   128   140      0   0   0
   128   151      0   0   0
   128   367      0   0   0
   128   368      0   0   0
   129    45      0   0   0
   129    63      0   0   0
   129   141      0   0   0
   129   159      0   0   0
   129   372      0   0   0
   129   379      0   0   0
   130    46      0   0   0
   130    64      0   0   0
   130   142      0   0   0
   130   160      0   0   0
   130   373      0   0   0
   130   378      0   0   0
   131    47      0   0   0
   131    62      0   0   0
   131   143      0   0   0
   131   158      0   0   0
   131   374      0   0   0
   131   377      0   0   0
   132    48      0   0   0
   132    61      0   0   0
   132   144      0   0   0
   132   157      0   0   0
   132   375      0   0   0
   132   376      0   0   0
   133    49      0   0   0
   133    60      0   0   0
   133   145      0   0   0
   133   156      0   0   0
   133   380      0   0   0
   133   387      0   0   0
   134    50      0   0   0
   134    59      0   0   0
   134   146      0   0   0
   134   155      0   0   0
   134   381      0   0   0
   134   386      0   0   0
   135    51      0   0   0
   135    58      0   0   0
   135   147      0   0   0
   135   154      0   0   0
   135   382      0   0   0
   135   385      0   0   0
   136    52      0   0   0
   136    57      0   0   0
   136   148      0   0   0
   136   153      0   0   0
   136   383      0   0   0
   136   384      0   0   0
   137    65      0   0   0
   137   125      0   0   0
   137   161      0   0   0
   137   197      0   0   0
   137   388      0   0   0
   137   395      0   0   0
   138    66      0   0   0
   138   126      0   0   0
   138   162      0   0   0
   138   198      0   0   0
   138   389      0   0   0
   138   394      0   0   0
   139    67      0   0   0
   139   127      0   0   0
   139   163      0   0   0
   139   199      0   0   0
   139   390      0   0   0
   139   393      0   0   0
   140    68      0   0   0
   140   128      0   0   0
   140   164      0   0   0
   140   200      0   0   0
   140   391      0   0   0
   140   392      0   0   0
   141    69      0   0   0
   141   129      0   0   0
   141   165      0   0   0
   141   201      0   0   0
   141   396      0   0   0
   141   403      0   0   0
   142    70      0   0   0
   142   130      0   0   0
   142   166      0   0   0
   142   202      0   0   0
   142   397      0   0   0
   142   402      0   0   0
   143    71      0   0   0
   143   131      0   0   0
   143   167      0   0   0
   143   203      0   0   0
   143   398      0   0   0
   143   401      0   0   0
   144    72      0   0   0
   144   132      0   0   0
   144   168      0   0   0
   144   204      0   0   0
   144   399      0   0   0
   144   400      0   0   0
   145    73      0   0   0
   145   133      0   0   0
   145   169      0   0   0
   145   205      0   0   0
   145   404      0   0   0
   145   411      0   0   0
   146    74      0   0   0
   146   134      0   0   0
   146   170      0   0   0
   146   206      0   0   0
   146   405      0   0   0
   146   410      0   0   0
   147    75      0   0   0
   147   135      0   0   0
   147   171      0   0   0
   147   207      0   0   0
   147   406      0   0   0
   147   409      0   0   0
   148    76      0   0   0
   148   136      0   0   0
   148   172      0   0   0
   148   208      0   0   0
   148   407      0   0   0
   148   408      0   0   0
   149    77      0   0   0
   149   125      0   0   0
   149   173      0   0   0
   149   197      0   0   0
   149   412      0   0   0
   149   415      0   0   0
   150    78      0   0   0
   150   126      0   0   0
   150   174      0   0   0
   150   198      0   0   0
   150   413      0   0   0
   150   414      0   0   0
   151    79      0   0   0
   151   128      0   0   0
   151   175      0   0   0
   151   200      0   0   0
   151   416      0   0   0
   151   419      0   0   0
   152    80      0   0   0
   152   127      0   0   0
   152   176      0   0   0
   152   199      0   0   0
   152   417      0   0   0
   152   418      0   0   0
   153    81      0   0   0
   153   136      0   0   0
   153   177      0   0   0
   153   208      0   0   0
   153   420      0   0   0
   153   427      0   0   0
   154    82      0   0   0
   154   135      0   0   0
   154   178      0   0   0
   154   207      0   0   0
   154   421      0   0   0
   154   426      0   0   0
   155    83      0   0   0
   155   134      0   0   0
   155   179      0   0   0
   155   206      0   0   0
   155   422      0   0   0
   155   425      0   0   0
   156    84      0   0   0
   156   133      0   0   0
   156   180      0   0   0
   156   205      0   0   0
   156   423      0   0   0
   156   424      0   0   0
   157    85      0   0   0
   157   132      0   0   0
   157   181      0   0   0
   157   204      0   0   0
   157   428      0   0   0
   157   435      0   0   0
   158    86      0   0   0
   158   131      0   0   0
   158   182      0   0   0
   158   203      0   0   0
   158   429      0   0   0
   158   434      0   0   0
   159    87      0   0   0
   159   129      0   0   0
   159   183      0   0   0
   159   201      0   0   0
   159   430      0   0   0
   159   433      0   0   0
   160    88      0   0   0
   160   130      0   0   0
   160   184      0   0   0
   160   202      0   0   0
   160   431      0   0   0
   160   432      0   0   0
   161    89      0   0   0
   161   137      0   0   0
   161   185      0   0   0
   161   209      0   0   0
   161   436      0   0   0
   161   443      0   0   0
   162    90      0   0   0
   162   138      0   0   0
   162   210      0   0   0
   162   437      0   0   0
   162   442      0   0   0
   162   186      0   0  -1
   163    91      0   0   0
   163   139      0   0   0
   163   186      0   0   0
   163   211      0   0   0
   163   438      0   0   0
   163   441      0   0   0
   164    92      0   0   0
   164   140      0   0   0
   164   212      0   0   0
   164   439      0   0   0
   164   440      0   0   0
   164   185      0   0  -1
   165    93      0   0   0
   165   141      0   0   0
   165   213      0   0   0
   165   444      0   0   0
   165   451      0   0   0
   165   187      0   0  -1
   166    94      0   0   0
   166   142      0   0   0
   166   188      0   0   0
   166   214      0   0   0
   166   445      0   0   0
   166   450      0   0   0
   167    95      0   0   0
   167   143      0   0   0
   167   215      0   0   0
   167   446      0   0   0
   167   449      0   0   0
   167   188      0   0  -1
   168    96      0   0   0
   168   144      0   0   0
   168   187      0   0   0
   168   216      0   0   0
   168   447      0   0   0
   168   448      0   0   0
   169    97      0   0   0
   169   145      0   0   0
   169   189      0   0   0
   169   217      0   0   0
   169   452      0   0   0
   169   459      0   0   0
   170    98      0   0   0
   170   146      0   0   0
   170   218      0   0   0
   170   453      0   0   0
   170   458      0   0   0
   170   190     -1   0   0
   171    99      0   0   0
   171   147      0   0   0
   171   219      0   0   0
   171   454      0   0   0
   171   457      0   0   0
   171   189     -1   0   0
   172   100      0   0   0
   172   148      0   0   0
   172   190      0   0   0
   172   220      0   0   0
   172   455      0   0   0
   172   456      0   0   0
   173   101      0   0   0
   173   149      0   0   0
   173   191      0   0   0
   173   221      0   0   0
   173   460      0   0   0
   173   463      0   0   0
   174   102      0   0   0
   174   150      0   0   0
   174   222      0   0   0
   174   461      0   0   0
   174   462      0   0   0
   174   192      0  -1   0
   175   103      0   0   0
   175   151      0   0   0
   175   192      0   0   0
   175   223      0   0   0
   175   464      0   0   0
   175   467      0   0   0
   176   104      0   0   0
   176   152      0   0   0
   176   224      0   0   0
   176   465      0   0   0
   176   466      0   0   0
   176   191      0  -1   0
   177   105      0   0   0
   177   153      0   0   0
   177   193      0   0   0
   177   225      0   0   0
   177   468      0   0   0
   177   475      0   0   0
   178   106      0   0   0
   178   154      0   0   0
   178   226      0   0   0
   178   469      0   0   0
   178   474      0   0   0
   178   194      0  -1   0
   179   107      0   0   0
   179   155      0   0   0
   179   194      0   0   0
   179   227      0   0   0
   179   470      0   0   0
   179   473      0   0   0
   180   108      0   0   0
   180   156      0   0   0
   180   228      0   0   0
   180   471      0   0   0
   180   472      0   0   0
   180   193      0  -1   0
   181   109      0   0   0
   181   157      0   0   0
   181   195      0   0   0
   181   229      0   0   0
   181   476      0   0   0
   181   483      0   0   0
   182   110      0   0   0
   182   158      0   0   0
   182   230      0   0   0
   182   477      0   0   0
   182   482      0   0   0
   182   196     -1   0   0
   183   111      0   0   0
   183   159      0   0   0
   183   196      0   0   0
   183   231      0   0   0
   183   478      0   0   0
   183   481      0   0   0
   184   112      0   0   0
   184   160      0   0   0
   184   232      0   0   0
   184   479      0   0   0
   184   480      0   0   0
   184   195     -1   0   0
   185   113      0   0   0
   185   161      0   0   0
   185   233      0   0   0
   185   484      0   0   0
   185   486      0   0   0
   185   164      0   0   1
   186   114      0   0   0
   186   163      0   0   0
   186   234      0   0   0
   186   485      0   0   0
   186   487      0   0   0
   186   162      0   0   1
   187   115      0   0   0
   187   168      0   0   0
   187   235      0   0   0
   187   488      0   0   0
   187   490      0   0   0
   187   165      0   0   1
   188   116      0   0   0
   188   166      0   0   0
   188   236      0   0   0
   188   489      0   0   0
   188   491      0   0   0
   188   167      0   0   1
   189   117      0   0   0
   189   169      0   0   0
   189   237      0   0   0
   189   492      0   0   0
   189   494      0   0   0
   189   171      1   0   0
   190   118      0   0   0
   190   172      0   0   0
   190   238      0   0   0
   190   493      0   0   0
   190   495      0   0   0
   190   170      1   0   0
   191   119      0   0   0
   191   173      0   0   0
   191   239      0   0   0
   191   496      0   0   0
   191   499      0   0   0
   191   176      0   1   0
   192   120      0   0   0
   192   175      0   0   0
   192   240      0   0   0
   192   497      0   0   0
   192   498      0   0   0
   192   174      0   1   0
   193   121      0   0   0
   193   177      0   0   0
   193   241      0   0   0
   193   500      0   0   0
   193   502      0   0   0
   193   180      0   1   0
   194   122      0   0   0
   194   179      0   0   0
   194   242      0   0   0
   194   501      0   0   0
   194   503      0   0   0
   194   178      0   1   0
   195   123      0   0   0
   195   181      0   0   0
   195   243      0   0   0
   195   504      0   0   0
   195   506      0   0   0
   195   184      1   0   0
   196   124      0   0   0
   196   183      0   0   0
   196   244      0   0   0
   196   505      0   0   0
   196   507      0   0   0
   196   182      1   0   0
   197   137      0   0   0
   197   149      0   0   0
   197   209      0   0   0
   197   221      0   0   0
   197   508      0   0   0
   197   515      0   0   0
   198   138      0   0   0
   198   150      0   0   0
   198   210      0   0   0
   198   222      0   0   0
   198   509      0   0   0
   198   514      0   0   0
   199   139      0   0   0
   199   152      0   0   0
   199   211      0   0   0
   199   224      0   0   0
   199   510      0   0   0
   199   513      0   0   0
   200   140      0   0   0
   200   151      0   0   0
   200   212      0   0   0
   200   223      0   0   0
   200   511      0   0   0
   200   512      0   0   0
   201   141      0   0   0
   201   159      0   0   0
   201   213      0   0   0
   201   231      0   0   0
   201   516      0   0   0
   201   523      0   0   0
   202   142      0   0   0
   202   160      0   0   0
   202   214      0   0   0
   202   232      0   0   0
   202   517      0   0   0
   202   522      0   0   0
   203   143      0   0   0
   203   158      0   0   0
   203   215      0   0   0
   203   230      0   0   0
   203   518      0   0   0
   203   521      0   0   0
   204   144      0   0   0
   204   157      0   0   0
   204   216      0   0   0
   204   229      0   0   0
   204   519      0   0   0
   204   520      0   0   0
   205   145      0   0   0
   205   156      0   0   0
   205   217      0   0   0
   205   228      0   0   0
   205   524      0   0   0
   205   531      0   0   0
   206   146      0   0   0
   206   155      0   0   0
   206   218      0   0   0
   206   227      0   0   0
   206   525      0   0   0
   206   530      0   0   0
   207   147      0   0   0
   207   154      0   0   0
   207   219      0   0   0
   207   226      0   0   0
   207   526      0   0   0
   207   529      0   0   0
   208   148      0   0   0
   208   153      0   0   0
   208   220      0   0   0
   208   225      0   0   0
   208   527      0   0   0
   208   528      0   0   0
   209   161      0   0   0
   209   197      0   0   0
   209   233      0   0   0
   209   245      0   0   0
   209   532      0   0   0
   209   539      0   0   0
   210   162      0   0   0
   210   198      0   0   0
   210   246      0   0   0
   210   533      0   0   0
   210   538      0   0   0
   210   234      0   0  -1
   211   163      0   0   0
   211   199      0   0   0
   211   234      0   0   0
   211   247      0   0   0
   211   534      0   0   0
   211   537      0   0   0
   212   164      0   0   0
   212   200      0   0   0
   212   248      0   0   0
   212   535      0   0   0
   212   536      0   0   0
   212   233      0   0  -1
   213   165      0   0   0
   213   201      0   0   0
   213   249      0   0   0
   213   540      0   0   0
   213   547      0   0   0
   213   235      0   0  -1
   214   166      0   0   0
   214   202      0   0   0
   214   236      0   0   0
   214   250      0   0   0
   214   541      0   0   0
[...]
   882   749      0   0   0
   882   890      0   0   0
   882   899      0   0   0
   882   901      0   0   0
   883   733      0   0   0
   883   740      0   0   0
   883   748      0   0   0
   883   891      0   0   0
   883   898      0   0   0
   883   900      0   0   0
   884   750      0   0   0
   884   761      0   0   0
   884   876      0   0   0
   884   908      0   0   0
   884   920      0   0   0
   884   931      0   0   0
   885   751      0   0   0
   885   760      0   0   0
   885   877      0   0   0
   885   921      0   0   0
   885   930      0   0   0
   885   909      0   0  -1
   886   752      0   0   0
   886   759      0   0   0
   886   878      0   0   0
   886   909      0   0   0
   886   922      0   0   0
   886   929      0   0   0
   887   753      0   0   0
   887   758      0   0   0
   887   879      0   0   0
   887   923      0   0   0
   887   928      0   0   0
   887   908      0   0  -1
   888   754      0   0   0
   888   763      0   0   0
   888   880      0   0   0
   888   924      0   0   0
   888   933      0   0   0
   888   910      0   0  -1
   889   755      0   0   0
   889   762      0   0   0
   889   881      0   0   0
   889   911      0   0   0
   889   925      0   0   0
   889   932      0   0   0
   890   756      0   0   0
   890   765      0   0   0
   890   882      0   0   0
   890   926      0   0   0
   890   935      0   0   0
   890   911      0   0  -1
   891   757      0   0   0
   891   764      0   0   0
   891   883      0   0   0
   891   910      0   0   0
   891   927      0   0   0
   891   934      0   0   0
   892   766      0   0   0
   892   797      0   0   0
   892   881      0   0   0
   892   912      0   0   0
   892   932      0   0   0
   892   936      0   0   0
   893   767      0   0   0
   893   796      0   0   0
   893   880      0   0   0
   893   933      0   0   0
   893   937      0   0   0
   893   913     -1   0   0
   894   768      0   0   0
   894   791      0   0   0
   894   877      0   0   0
   894   930      0   0   0
   894   938      0   0   0
   894   914     -1   0   0
   895   769      0   0   0
   895   790      0   0   0
   895   876      0   0   0
   895   915      0   0   0
   895   931      0   0   0
   895   939      0   0   0
   896   770      0   0   0
   896   795      0   0   0
   896   879      0   0   0
   896   913      0   0   0
   896   928      0   0   0
   896   940      0   0   0
   897   771      0   0   0
   897   794      0   0   0
   897   878      0   0   0
   897   929      0   0   0
   897   941      0   0   0
   897   912     -1   0   0
   898   772      0   0   0
   898   793      0   0   0
   898   883      0   0   0
   898   934      0   0   0
   898   942      0   0   0
   898   915     -1   0   0
   899   773      0   0   0
   899   792      0   0   0
   899   882      0   0   0
   899   914      0   0   0
   899   935      0   0   0
   899   943      0   0   0
   900   774      0   0   0
   900   787      0   0   0
   900   883      0   0   0
   900   916      0   0   0
   900   927      0   0   0
   900   942      0   0   0
   901   775      0   0   0
   901   786      0   0   0
   901   882      0   0   0
   901   926      0   0   0
   901   943      0   0   0
   901   917      0  -1   0
   902   776      0   0   0
   902   783      0   0   0
   902   877      0   0   0
   902   921      0   0   0
   902   938      0   0   0
   902   918      0  -1   0
   903   777      0   0   0
   903   782      0   0   0
   903   876      0   0   0
   903   919      0   0   0
   903   920      0   0   0
   903   939      0   0   0
   904   778      0   0   0
   904   789      0   0   0
   904   879      0   0   0
   904   917      0   0   0
   904   923      0   0   0
   904   940      0   0   0
   905   779      0   0   0
   905   788      0   0   0
   905   878      0   0   0
   905   922      0   0   0
   905   941      0   0   0
   905   916      0  -1   0
   906   780      0   0   0
   906   785      0   0   0
   906   881      0   0   0
   906   925      0   0   0
   906   936      0   0   0
   906   919      0  -1   0
   907   781      0   0   0
   907   784      0   0   0
   907   880      0   0   0
   907   918      0   0   0
   907   924      0   0   0
   907   937      0   0   0
   908   798      0   0   0
   908   802      0   0   0
   908   884      0   0   0
   908   944      0   0   0
   908   948      0   0   0
   908   887      0   0   1
   909   799      0   0   0
   909   803      0   0   0
   909   886      0   0   0
   909   945      0   0   0
   909   949      0   0   0
   909   885      0   0   1
   910   800      0   0   0
   910   805      0   0   0
   910   891      0   0   0
   910   946      0   0   0
   910   951      0   0   0
   910   888      0   0   1
   911   801      0   0   0
   911   804      0   0   0
   911   889      0   0   0
   911   947      0   0   0
   911   950      0   0   0
   911   890      0   0   1
   912   806      0   0   0
   912   820      0   0   0
   912   892      0   0   0
   912   952      0   0   0
   912   966      0   0   0
   912   897      1   0   0
   913   807      0   0   0
   913   821      0   0   0
   913   896      0   0   0
   913   953      0   0   0
   913   967      0   0   0
   913   893      1   0   0
   914   808      0   0   0
   914   819      0   0   0
   914   899      0   0   0
   914   954      0   0   0
   914   965      0   0   0
   914   894      1   0   0
   915   809      0   0   0
   915   818      0   0   0
   915   895      0   0   0
   915   955      0   0   0
   915   964      0   0   0
   915   898      1   0   0
   916   810      0   0   0
   916   817      0   0   0
   916   900      0   0   0
   916   956      0   0   0
   916   963      0   0   0
   916   905      0   1   0
   917   811      0   0   0
   917   816      0   0   0
   917   904      0   0   0
   917   957      0   0   0
   917   962      0   0   0
   917   901      0   1   0
   918   812      0   0   0
   918   815      0   0   0
   918   907      0   0   0
   918   958      0   0   0
   918   961      0   0   0
   918   902      0   1   0
   919   813      0   0   0
   919   814      0   0   0
   919   903      0   0   0
   919   959      0   0   0
   919   960      0   0   0
   919   906      0   1   0
   920   822      0   0   0
   920   884      0   0   0
   920   903      0   0   0
   920   944      0   0   0
   920   959      0   0   0
   920   974      0   0   0
   921   823      0   0   0
   921   885      0   0   0
   921   902      0   0   0
   921   975      0   0   0
   921   945      0   0  -1
   921   958      0  -1   0
   922   824      0   0   0
   922   886      0   0   0
   922   905      0   0   0
   922   945      0   0   0
   922   976      0   0   0
   922   956      0  -1   0
   923   825      0   0   0
   923   887      0   0   0
   923   904      0   0   0
   923   957      0   0   0
   923   977      0   0   0
   923   944      0   0  -1
   924   826      0   0   0
   924   888      0   0   0
   924   907      0   0   0
   924   958      0   0   0
   924   978      0   0   0
   924   946      0   0  -1
   925   827      0   0   0
   925   889      0   0   0
   925   906      0   0   0
   925   947      0   0   0
   925   979      0   0   0
   925   959      0  -1   0
   926   828      0   0   0
   926   890      0   0   0
   926   901      0   0   0
   926   980      0   0   0
   926   947      0   0  -1
   926   957      0  -1   0
   927   829      0   0   0
   927   891      0   0   0
   927   900      0   0   0
   927   946      0   0   0
   927   956      0   0   0
   927   981      0   0   0
   928   830      0   0   0
   928   887      0   0   0
   928   896      0   0   0
   928   967      0   0   0
   928   977      0   0   0
   928   948      0   0  -1
   929   831      0   0   0
   929   886      0   0   0
   929   897      0   0   0
   929   949      0   0   0
   929   976      0   0   0
   929   966     -1   0   0
   930   832      0   0   0
   930   885      0   0   0
   930   894      0   0   0
   930   975      0   0   0
   930   949      0   0  -1
   930   965     -1   0   0
   931   833      0   0   0
   931   884      0   0   0
   931   895      0   0   0
   931   948      0   0   0
   931   964      0   0   0
   931   974      0   0   0
   932   834      0   0   0
   932   889      0   0   0
   932   892      0   0   0
   932   950      0   0   0
   932   966      0   0   0
   932   979      0   0   0
   933   835      0   0   0
   933   888      0   0   0
   933   893      0   0   0
   933   978      0   0   0
   933   951      0   0  -1
   933   967     -1   0   0
   934   836      0   0   0
   934   891      0   0   0
   934   898      0   0   0
   934   951      0   0   0
   934   981      0   0   0
   934   964     -1   0   0
   935   837      0   0   0
   935   890      0   0   0
   935   899      0   0   0
   935   965      0   0   0
   935   980      0   0   0
   935   950      0   0  -1
   936   838      0   0   0
   936   892      0   0   0
   936   906      0   0   0
   936   952      0   0   0
   936   979      0   0   0
   936   960      0  -1   0
   937   839      0   0   0
   937   893      0   0   0
   937   907      0   0   0
   937   961      0   0   0
   937   978      0   0   0
   937   953     -1   0   0
   938   840      0   0   0
   938   894      0   0   0
   938   902      0   0   0
   938   975      0   0   0
   938   961      0  -1   0
   938   954     -1   0   0
   939   841      0   0   0
   939   895      0   0   0
   939   903      0   0   0
   939   955      0   0   0
   939   960      0   0   0
   939   974      0   0   0
   940   842      0   0   0
   940   896      0   0   0
   940   904      0   0   0
   940   953      0   0   0
   940   962      0   0   0
   940   977      0   0   0
   941   843      0   0   0
   941   897      0   0   0
   941   905      0   0   0
   941   976      0   0   0
   941   963      0  -1   0
   941   952     -1   0   0
   942   844      0   0   0
   942   898      0   0   0
   942   900      0   0   0
   942   963      0   0   0
   942   981      0   0   0
   942   955     -1   0   0
   943   845      0   0   0
   943   899      0   0   0
   943   901      0   0   0
   943   954      0   0   0
   943   980      0   0   0
   943   962      0  -1   0
   944   846      0   0   0
   944   908      0   0   0
   944   920      0   0   0
   944   968      0   0   0
   944   982      0   0   0
   944   923      0   0   1
   945   847      0   0   0
   945   909      0   0   0
   945   922      0   0   0
   945   983      0   0   0
   945   921      0   0   1
   945   969      0  -1   0
   946   848      0   0   0
   946   910      0   0   0
   946   927      0   0   0
   946   969      0   0   0
   946   984      0   0   0
   946   924      0   0   1
   947   849      0   0   0
   947   911      0   0   0
   947   925      0   0   0
   947   985      0   0   0
   947   926      0   0   1
   947   968      0  -1   0
   948   850      0   0   0
   948   908      0   0   0
   948   931      0   0   0
   948   970      0   0   0
   948   982      0   0   0
   948   928      0   0   1
   949   851      0   0   0
   949   909      0   0   0
   949   929      0   0   0
   949   983      0   0   0
   949   930      0   0   1
   949   971     -1   0   0
   950   852      0   0   0
   950   911      0   0   0
   950   932      0   0   0
   950   971      0   0   0
   950   985      0   0   0
   950   935      0   0   1
   951   853      0   0   0
   951   910      0   0   0
   951   934      0   0   0
   951   984      0   0   0
   951   933      0   0   1
   951   970     -1   0   0
   952   854      0   0   0
   952   912      0   0   0
   952   936      0   0   0
   952   986      0   0   0
   952   941      1   0   0
   952   972      0  -1   0
   953   855      0   0   0
   953   913      0   0   0
   953   940      0   0   0
   953   973      0   0   0
   953   987      0   0   0
   953   937      1   0   0
   954   856      0   0   0
   954   914      0   0   0
   954   943      0   0   0
   954   988      0   0   0
   954   938      1   0   0
   954   973      0  -1   0
   955   857      0   0   0
   955   915      0   0   0
   955   939      0   0   0
   955   972      0   0   0
   955   989      0   0   0
   955   942      1   0   0
   956   858      0   0   0
   956   916      0   0   0
   956   927      0   0   0
   956   969      0   0   0
   956   990      0   0   0
   956   922      0   1   0
   957   859      0   0   0
   957   917      0   0   0
   957   923      0   0   0
   957   991      0   0   0
   957   926      0   1   0
   957   968      0   0  -1
   958   860      0   0   0
   958   918      0   0   0
   958   924      0   0   0
   958   992      0   0   0
   958   921      0   1   0
   958   969      0   0  -1
   959   861      0   0   0
   959   919      0   0   0
   959   920      0   0   0
   959   968      0   0   0
   959   993      0   0   0
   959   925      0   1   0
   960   862      0   0   0
   960   919      0   0   0
   960   939      0   0   0
   960   972      0   0   0
   960   993      0   0   0
   960   936      0   1   0
   961   863      0   0   0
   961   918      0   0   0
   961   937      0   0   0
   961   992      0   0   0
   961   938      0   1   0
   961   973     -1   0   0
   962   864      0   0   0
   962   917      0   0   0
   962   940      0   0   0
   962   973      0   0   0
   962   991      0   0   0
   962   943      0   1   0
   963   865      0   0   0
   963   916      0   0   0
   963   942      0   0   0
   963   990      0   0   0
   963   941      0   1   0
   963   972     -1   0   0
   964   866      0   0   0
   964   915      0   0   0
   964   931      0   0   0
   964   970      0   0   0
   964   989      0   0   0
   964   934      1   0   0
   965   867      0   0   0
   965   914      0   0   0
   965   935      0   0   0
   965   988      0   0   0
   965   930      1   0   0
   965   971      0   0  -1
   966   868      0   0   0
   966   912      0   0   0
   966   932      0   0   0
   966   971      0   0   0
   966   986      0   0   0
   966   929      1   0   0
   967   869      0   0   0
   967   913      0   0   0
   967   928      0   0   0
   967   987      0   0   0
   967   933      1   0   0
   967   970      0   0  -1
   968   870      0   0   0
   968   944      0   0   0
   968   959      0   0   0
   968   994      0   0   0
   968   947      0   1   0
   968   957      0   0   1
   969   871      0   0   0
   969   946      0   0   0
   969   956      0   0   0
   969   995      0   0   0
   969   945      0   1   0
   969   958      0   0   1
   970   872      0   0   0
   970   948      0   0   0
   970   964      0   0   0
   970   996      0   0   0
   970   951      1   0   0
   970   967      0   0   1
   971   873      0   0   0
   971   950      0   0   0
   971   966      0   0   0
   971   997      0   0   0
   971   949      1   0   0
   971   965      0   0   1
   972   874      0   0   0
   972   955      0   0   0
   972   960      0   0   0
   972   998      0   0   0
   972   963      1   0   0
   972   952      0   1   0
   973   875      0   0   0
   973   953      0   0   0
   973   962      0   0   0
   973   999      0   0   0
   973   961      1   0   0
   973   954      0   1   0
   974   920      0   0   0
   974   931      0   0   0
   974   939      0   0   0
   974   982      0   0   0
   974   989      0   0   0
   974   993      0   0   0
   975   921      0   0   0
   975   930      0   0   0
   975   938      0   0   0
   975   983      0   0  -1
   975   992      0  -1   0
   975   988     -1   0   0
   976   922      0   0   0
   976   929      0   0   0
   976   941      0   0   0
   976   983      0   0   0
   976   990      0  -1   0
   976   986     -1   0   0
   977   923      0   0   0
   977   928      0   0   0
   977   940      0   0   0
   977   987      0   0   0
   977   991      0   0   0
   977   982      0   0  -1
   978   924      0   0   0
   978   933      0   0   0
   978   937      0   0   0
   978   992      0   0   0
   978   984      0   0  -1
   978   987     -1   0   0
   979   925      0   0   0
   979   932      0   0   0
   979   936      0   0   0
   979   985      0   0   0
   979   986      0   0   0
   979   993      0  -1   0
   980   926      0   0   0
   980   935      0   0   0
   980   943      0   0   0
   980   988      0   0   0
   980   985      0   0  -1
   980   991      0  -1   0
   981   927      0   0   0
   981   934      0   0   0
   981   942      0   0   0
   981   984      0   0   0
   981   990      0   0   0
   981   989     -1   0   0
   982   944      0   0   0
   982   948      0   0   0
   982   974      0   0   0
   982   994      0   0   0
   982   996      0   0   0
   982   977      0   0   1
   983   945      0   0   0
   983   949      0   0   0
   983   976      0   0   0
   983   975      0   0   1
   983   995      0  -1   0
   983   997     -1   0   0
   984   946      0   0   0
   984   951      0   0   0
   984   981      0   0   0
   984   995      0   0   0
   984   978      0   0   1
   984   996     -1   0   0
   985   947      0   0   0
   985   950      0   0   0
   985   979      0   0   0
   985   997      0   0   0
   985   980      0   0   1
   985   994      0  -1   0
   986   952      0   0   0
   986   966      0   0   0
   986   979      0   0   0
   986   997      0   0   0
   986   976      1   0   0
   986   998      0  -1   0
   987   953      0   0   0
   987   967      0   0   0
   987   977      0   0   0
   987   999      0   0   0
   987   978      1   0   0
   987   996      0   0  -1
   988   954      0   0   0
   988   965      0   0   0
   988   980      0   0   0
   988   975      1   0   0
   988   997      0   0  -1
   988   999      0  -1   0
   989   955      0   0   0
   989   964      0   0   0
   989   974      0   0   0
   989   996      0   0   0
   989   998      0   0   0
   989   981      1   0   0
   990   956      0   0   0
   990   963      0   0   0
   990   981      0   0   0
   990   995      0   0   0
   990   976      0   1   0
   990   998     -1   0   0
   991   957      0   0   0
   991   962      0   0   0
   991   977      0   0   0
   991   999      0   0   0
   991   980      0   1   0
   991   994      0   0  -1
   992   958      0   0   0
   992   961      0   0   0
   992   978      0   0   0
   992   975      0   1   0
   992   995      0   0  -1
   992   999     -1   0   0
   993   959      0   0   0
   993   960      0   0   0
   993   974      0   0   0
   993   994      0   0   0
   993   998      0   0   0
   993   979      0   1   0
   994   968      0   0   0
   994   982      0   0   0
   994   993      0   0   0
   994  1000      0   0   0
   994   985      0   1   0
   994   991      0   0   1
   995   969      0   0   0
   995   984      0   0   0
   995   990      0   0   0
   995   983      0   1   0
   995   992      0   0   1
   995  1000     -1   0   0
   996   970      0   0   0
   996   982      0   0   0
   996   989      0   0   0
   996  1000      0   0   0
   996   984      1   0   0
   996   987      0   0   1
   997   971      0   0   0
   997   985      0   0   0
   997   986      0   0   0
   997   983      1   0   0
   997   988      0   0   1
   997  1000      0  -1   0
   998   972      0   0   0
   998   989      0   0   0
   998   993      0   0   0
   998  1000      0   0   0
   998   990      1   0   0
   998   986      0   1   0
   999   973      0   0   0
   999   987      0   0   0
   999   991      0   0   0
   999   992      1   0   0
   999   988      0   1   0
   999  1000      0   0  -1
  1000   994      0   0   0
  1000   996      0   0   0
  1000   998      0   0   0
  1000   995      1   0   0
  1000   997      0   1   0
  1000   999      0   0   1
end nnkpts

begin exclude_bands
   0
end exclude_bands
